V -t * -v 1.0a5 -a 0
A -t * -n 1 -p 0 -o 0x7fffffff -c 30 -a 1
A -t * -h 1 -m 1073741823 -s 0
c -t * -i 1 -n blue
c -t * -i 2 -n red
n -t * -a 0 -s 0 -S UP -v circle -c black -i black
n -t * -a 1 -s 1 -S UP -v circle -c black -i black
n -t * -a 2 -s 2 -S UP -v circle -c black -i black
l -t * -s 0 -d 2 -S UP -r 900000 -D 0.01 -c black -o right-down
l -t * -s 1 -d 2 -S UP -r 900000 -D 0.01 -c black -o right-up
+ -t 0.1 -s 0 -d 2 -p tcp -e 40 -c 1 -i 0 -a 1 -x {0.0 2.0 0 ------- null}
- -t 0.1 -s 0 -d 2 -p tcp -e 40 -c 1 -i 0 -a 1 -x {0.0 2.0 0 ------- null}
h -t 0.1 -s 0 -d 2 -p tcp -e 40 -c 1 -i 0 -a 1 -x {0.0 2.0 -1 ------- null}
+ -t 0.1 -s 1 -d 2 -p cbr -e 1000 -c 2 -i 1 -a 2 -x {1.0 2.1 0 ------- null}
- -t 0.1 -s 1 -d 2 -p cbr -e 1000 -c 2 -i 1 -a 2 -x {1.0 2.1 0 ------- null}
h -t 0.1 -s 1 -d 2 -p cbr -e 1000 -c 2 -i 1 -a 2 -x {1.0 2.1 -1 ------- null}
+ -t 0.108 -s 1 -d 2 -p cbr -e 1000 -c 2 -i 2 -a 2 -x {1.0 2.1 1 ------- null}
- -t 0.108888888888889 -s 1 -d 2 -p cbr -e 1000 -c 2 -i 2 -a 2 -x {1.0 2.1 1 ------- null}
h -t 0.108888888888889 -s 1 -d 2 -p cbr -e 1000 -c 2 -i 2 -a 2 -x {1.0 2.1 -1 ------- null}
r -t 0.110355555555556 -s 0 -d 2 -p tcp -e 40 -c 1 -i 0 -a 1 -x {0.0 2.0 0 ------- null}
+ -t 0.110355555555556 -s 2 -d 0 -p ack -e 40 -c 1 -i 3 -a 1 -x {2.0 0.0 0 ------- null}
- -t 0.110355555555556 -s 2 -d 0 -p ack -e 40 -c 1 -i 3 -a 1 -x {2.0 0.0 0 ------- null}
h -t 0.110355555555556 -s 2 -d 0 -p ack -e 40 -c 1 -i 3 -a 1 -x {2.0 0.0 -1 ------- null}
+ -t 0.116 -s 1 -d 2 -p cbr -e 1000 -c 2 -i 4 -a 2 -x {1.0 2.1 2 ------- null}
- -t 0.117777777777778 -s 1 -d 2 -p cbr -e 1000 -c 2 -i 4 -a 2 -x {1.0 2.1 2 ------- null}
h -t 0.117777777777778 -s 1 -d 2 -p cbr -e 1000 -c 2 -i 4 -a 2 -x {1.0 2.1 -1 ------- null}
r -t 0.118888888888889 -s 1 -d 2 -p cbr -e 1000 -c 2 -i 1 -a 2 -x {1.0 2.1 0 ------- null}
r -t 0.120711111111111 -s 2 -d 0 -p ack -e 40 -c 1 -i 3 -a 1 -x {2.0 0.0 0 ------- null}
+ -t 0.120711111111111 -s 0 -d 2 -p tcp -e 1040 -c 1 -i 5 -a 1 -x {0.0 2.0 1 ------- null}
- -t 0.120711111111111 -s 0 -d 2 -p tcp -e 1040 -c 1 -i 5 -a 1 -x {0.0 2.0 1 ------- null}
h -t 0.120711111111111 -s 0 -d 2 -p tcp -e 1040 -c 1 -i 5 -a 1 -x {0.0 2.0 -1 ------- null}
+ -t 0.120711111111111 -s 0 -d 2 -p tcp -e 1040 -c 1 -i 6 -a 1 -x {0.0 2.0 2 ------- null}
+ -t 0.124 -s 1 -d 2 -p cbr -e 1000 -c 2 -i 7 -a 2 -x {1.0 2.1 3 ------- null}
- -t 0.126666666666667 -s 1 -d 2 -p cbr -e 1000 -c 2 -i 7 -a 2 -x {1.0 2.1 3 ------- null}
h -t 0.126666666666667 -s 1 -d 2 -p cbr -e 1000 -c 2 -i 7 -a 2 -x {1.0 2.1 -1 ------- null}
r -t 0.127777777777778 -s 1 -d 2 -p cbr -e 1000 -c 2 -i 2 -a 2 -x {1.0 2.1 1 ------- null}
- -t 0.129955555555556 -s 0 -d 2 -p tcp -e 1040 -c 1 -i 6 -a 1 -x {0.0 2.0 2 ------- null}
h -t 0.129955555555556 -s 0 -d 2 -p tcp -e 1040 -c 1 -i 6 -a 1 -x {0.0 2.0 -1 ------- null}
+ -t 0.132 -s 1 -d 2 -p cbr -e 1000 -c 2 -i 8 -a 2 -x {1.0 2.1 4 ------- null}
- -t 0.135555555555556 -s 1 -d 2 -p cbr -e 1000 -c 2 -i 8 -a 2 -x {1.0 2.1 4 ------- null}
h -t 0.135555555555556 -s 1 -d 2 -p cbr -e 1000 -c 2 -i 8 -a 2 -x {1.0 2.1 -1 ------- null}
r -t 0.136666666666667 -s 1 -d 2 -p cbr -e 1000 -c 2 -i 4 -a 2 -x {1.0 2.1 2 ------- null}
r -t 0.139955555555556 -s 0 -d 2 -p tcp -e 1040 -c 1 -i 5 -a 1 -x {0.0 2.0 1 ------- null}
+ -t 0.139955555555556 -s 2 -d 0 -p ack -e 40 -c 1 -i 9 -a 1 -x {2.0 0.0 1 ------- null}
- -t 0.139955555555556 -s 2 -d 0 -p ack -e 40 -c 1 -i 9 -a 1 -x {2.0 0.0 1 ------- null}
h -t 0.139955555555556 -s 2 -d 0 -p ack -e 40 -c 1 -i 9 -a 1 -x {2.0 0.0 -1 ------- null}
+ -t 0.14 -s 1 -d 2 -p cbr -e 1000 -c 2 -i 10 -a 2 -x {1.0 2.1 5 ------- null}
- -t 0.144444444444444 -s 1 -d 2 -p cbr -e 1000 -c 2 -i 10 -a 2 -x {1.0 2.1 5 ------- null}
h -t 0.144444444444444 -s 1 -d 2 -p cbr -e 1000 -c 2 -i 10 -a 2 -x {1.0 2.1 -1 ------- null}
r -t 0.145555555555556 -s 1 -d 2 -p cbr -e 1000 -c 2 -i 7 -a 2 -x {1.0 2.1 3 ------- null}
+ -t 0.148 -s 1 -d 2 -p cbr -e 1000 -c 2 -i 11 -a 2 -x {1.0 2.1 6 ------- null}
r -t 0.1492 -s 0 -d 2 -p tcp -e 1040 -c 1 -i 6 -a 1 -x {0.0 2.0 2 ------- null}
+ -t 0.1492 -s 2 -d 0 -p ack -e 40 -c 1 -i 12 -a 1 -x {2.0 0.0 2 ------- null}
- -t 0.1492 -s 2 -d 0 -p ack -e 40 -c 1 -i 12 -a 1 -x {2.0 0.0 2 ------- null}
h -t 0.1492 -s 2 -d 0 -p ack -e 40 -c 1 -i 12 -a 1 -x {2.0 0.0 -1 ------- null}
r -t 0.150311111111111 -s 2 -d 0 -p ack -e 40 -c 1 -i 9 -a 1 -x {2.0 0.0 1 ------- null}
+ -t 0.150311111111111 -s 0 -d 2 -p tcp -e 1040 -c 1 -i 13 -a 1 -x {0.0 2.0 3 ------- null}
- -t 0.150311111111111 -s 0 -d 2 -p tcp -e 1040 -c 1 -i 13 -a 1 -x {0.0 2.0 3 ------- null}
h -t 0.150311111111111 -s 0 -d 2 -p tcp -e 1040 -c 1 -i 13 -a 1 -x {0.0 2.0 -1 ------- null}
+ -t 0.150311111111111 -s 0 -d 2 -p tcp -e 1040 -c 1 -i 14 -a 1 -x {0.0 2.0 4 ------- null}
- -t 0.153333333333333 -s 1 -d 2 -p cbr -e 1000 -c 2 -i 11 -a 2 -x {1.0 2.1 6 ------- null}
h -t 0.153333333333333 -s 1 -d 2 -p cbr -e 1000 -c 2 -i 11 -a 2 -x {1.0 2.1 -1 ------- null}
r -t 0.154444444444444 -s 1 -d 2 -p cbr -e 1000 -c 2 -i 8 -a 2 -x {1.0 2.1 4 ------- null}
+ -t 0.156 -s 1 -d 2 -p cbr -e 1000 -c 2 -i 15 -a 2 -x {1.0 2.1 7 ------- null}
r -t 0.159555555555556 -s 2 -d 0 -p ack -e 40 -c 1 -i 12 -a 1 -x {2.0 0.0 2 ------- null}
+ -t 0.159555555555556 -s 0 -d 2 -p tcp -e 1040 -c 1 -i 16 -a 1 -x {0.0 2.0 5 ------- null}
+ -t 0.159555555555556 -s 0 -d 2 -p tcp -e 1040 -c 1 -i 17 -a 1 -x {0.0 2.0 6 ------- null}
- -t 0.159555555555556 -s 0 -d 2 -p tcp -e 1040 -c 1 -i 14 -a 1 -x {0.0 2.0 4 ------- null}
h -t 0.159555555555556 -s 0 -d 2 -p tcp -e 1040 -c 1 -i 14 -a 1 -x {0.0 2.0 -1 ------- null}
- -t 0.162222222222222 -s 1 -d 2 -p cbr -e 1000 -c 2 -i 15 -a 2 -x {1.0 2.1 7 ------- null}
h -t 0.162222222222222 -s 1 -d 2 -p cbr -e 1000 -c 2 -i 15 -a 2 -x {1.0 2.1 -1 ------- null}
r -t 0.163333333333333 -s 1 -d 2 -p cbr -e 1000 -c 2 -i 10 -a 2 -x {1.0 2.1 5 ------- null}
+ -t 0.164 -s 1 -d 2 -p cbr -e 1000 -c 2 -i 18 -a 2 -x {1.0 2.1 8 ------- null}
- -t 0.1688 -s 0 -d 2 -p tcp -e 1040 -c 1 -i 16 -a 1 -x {0.0 2.0 5 ------- null}
h -t 0.1688 -s 0 -d 2 -p tcp -e 1040 -c 1 -i 16 -a 1 -x {0.0 2.0 -1 ------- null}
r -t 0.169555555555556 -s 0 -d 2 -p tcp -e 1040 -c 1 -i 13 -a 1 -x {0.0 2.0 3 ------- null}
+ -t 0.169555555555556 -s 2 -d 0 -p ack -e 40 -c 1 -i 19 -a 1 -x {2.0 0.0 3 ------- null}
- -t 0.169555555555556 -s 2 -d 0 -p ack -e 40 -c 1 -i 19 -a 1 -x {2.0 0.0 3 ------- null}
h -t 0.169555555555556 -s 2 -d 0 -p ack -e 40 -c 1 -i 19 -a 1 -x {2.0 0.0 -1 ------- null}
- -t 0.171111111111111 -s 1 -d 2 -p cbr -e 1000 -c 2 -i 18 -a 2 -x {1.0 2.1 8 ------- null}
h -t 0.171111111111111 -s 1 -d 2 -p cbr -e 1000 -c 2 -i 18 -a 2 -x {1.0 2.1 -1 ------- null}
+ -t 0.172 -s 1 -d 2 -p cbr -e 1000 -c 2 -i 20 -a 2 -x {1.0 2.1 9 ------- null}
r -t 0.172222222222222 -s 1 -d 2 -p cbr -e 1000 -c 2 -i 11 -a 2 -x {1.0 2.1 6 ------- null}
- -t 0.178044444444444 -s 0 -d 2 -p tcp -e 1040 -c 1 -i 17 -a 1 -x {0.0 2.0 6 ------- null}
h -t 0.178044444444444 -s 0 -d 2 -p tcp -e 1040 -c 1 -i 17 -a 1 -x {0.0 2.0 -1 ------- null}
r -t 0.1788 -s 0 -d 2 -p tcp -e 1040 -c 1 -i 14 -a 1 -x {0.0 2.0 4 ------- null}
+ -t 0.1788 -s 2 -d 0 -p ack -e 40 -c 1 -i 21 -a 1 -x {2.0 0.0 4 ------- null}
- -t 0.1788 -s 2 -d 0 -p ack -e 40 -c 1 -i 21 -a 1 -x {2.0 0.0 4 ------- null}
h -t 0.1788 -s 2 -d 0 -p ack -e 40 -c 1 -i 21 -a 1 -x {2.0 0.0 -1 ------- null}
r -t 0.179911111111111 -s 2 -d 0 -p ack -e 40 -c 1 -i 19 -a 1 -x {2.0 0.0 3 ------- null}
+ -t 0.179911111111111 -s 0 -d 2 -p tcp -e 1040 -c 1 -i 22 -a 1 -x {0.0 2.0 7 ------- null}
+ -t 0.179911111111111 -s 0 -d 2 -p tcp -e 1040 -c 1 -i 23 -a 1 -x {0.0 2.0 8 ------- null}
- -t 0.18 -s 1 -d 2 -p cbr -e 1000 -c 2 -i 20 -a 2 -x {1.0 2.1 9 ------- null}
h -t 0.18 -s 1 -d 2 -p cbr -e 1000 -c 2 -i 20 -a 2 -x {1.0 2.1 -1 ------- null}
+ -t 0.18 -s 1 -d 2 -p cbr -e 1000 -c 2 -i 24 -a 2 -x {1.0 2.1 10 ------- null}
r -t 0.181111111111111 -s 1 -d 2 -p cbr -e 1000 -c 2 -i 15 -a 2 -x {1.0 2.1 7 ------- null}
- -t 0.187288888888889 -s 0 -d 2 -p tcp -e 1040 -c 1 -i 22 -a 1 -x {0.0 2.0 7 ------- null}
h -t 0.187288888888889 -s 0 -d 2 -p tcp -e 1040 -c 1 -i 22 -a 1 -x {0.0 2.0 -1 ------- null}
+ -t 0.188 -s 1 -d 2 -p cbr -e 1000 -c 2 -i 25 -a 2 -x {1.0 2.1 11 ------- null}
r -t 0.188044444444444 -s 0 -d 2 -p tcp -e 1040 -c 1 -i 16 -a 1 -x {0.0 2.0 5 ------- null}
+ -t 0.188044444444444 -s 2 -d 0 -p ack -e 40 -c 1 -i 26 -a 1 -x {2.0 0.0 5 ------- null}
- -t 0.188044444444444 -s 2 -d 0 -p ack -e 40 -c 1 -i 26 -a 1 -x {2.0 0.0 5 ------- null}
h -t 0.188044444444444 -s 2 -d 0 -p ack -e 40 -c 1 -i 26 -a 1 -x {2.0 0.0 -1 ------- null}
- -t 0.188888888888889 -s 1 -d 2 -p cbr -e 1000 -c 2 -i 24 -a 2 -x {1.0 2.1 10 ------- null}
h -t 0.188888888888889 -s 1 -d 2 -p cbr -e 1000 -c 2 -i 24 -a 2 -x {1.0 2.1 -1 ------- null}
r -t 0.189155555555556 -s 2 -d 0 -p ack -e 40 -c 1 -i 21 -a 1 -x {2.0 0.0 4 ------- null}
+ -t 0.189155555555556 -s 0 -d 2 -p tcp -e 1040 -c 1 -i 27 -a 1 -x {0.0 2.0 9 ------- null}
+ -t 0.189155555555556 -s 0 -d 2 -p tcp -e 1040 -c 1 -i 28 -a 1 -x {0.0 2.0 10 ------- null}
r -t 0.19 -s 1 -d 2 -p cbr -e 1000 -c 2 -i 18 -a 2 -x {1.0 2.1 8 ------- null}
+ -t 0.196 -s 1 -d 2 -p cbr -e 1000 -c 2 -i 29 -a 2 -x {1.0 2.1 12 ------- null}
- -t 0.196533333333333 -s 0 -d 2 -p tcp -e 1040 -c 1 -i 23 -a 1 -x {0.0 2.0 8 ------- null}
h -t 0.196533333333333 -s 0 -d 2 -p tcp -e 1040 -c 1 -i 23 -a 1 -x {0.0 2.0 -1 ------- null}
r -t 0.197288888888889 -s 0 -d 2 -p tcp -e 1040 -c 1 -i 17 -a 1 -x {0.0 2.0 6 ------- null}
+ -t 0.197288888888889 -s 2 -d 0 -p ack -e 40 -c 1 -i 30 -a 1 -x {2.0 0.0 6 ------- null}
- -t 0.197288888888889 -s 2 -d 0 -p ack -e 40 -c 1 -i 30 -a 1 -x {2.0 0.0 6 ------- null}
h -t 0.197288888888889 -s 2 -d 0 -p ack -e 40 -c 1 -i 30 -a 1 -x {2.0 0.0 -1 ------- null}
- -t 0.197777777777778 -s 1 -d 2 -p cbr -e 1000 -c 2 -i 25 -a 2 -x {1.0 2.1 11 ------- null}
h -t 0.197777777777778 -s 1 -d 2 -p cbr -e 1000 -c 2 -i 25 -a 2 -x {1.0 2.1 -1 ------- null}
r -t 0.1984 -s 2 -d 0 -p ack -e 40 -c 1 -i 26 -a 1 -x {2.0 0.0 5 ------- null}
+ -t 0.1984 -s 0 -d 2 -p tcp -e 1040 -c 1 -i 31 -a 1 -x {0.0 2.0 11 ------- null}
+ -t 0.1984 -s 0 -d 2 -p tcp -e 1040 -c 1 -i 32 -a 1 -x {0.0 2.0 12 ------- null}
r -t 0.198888888888889 -s 1 -d 2 -p cbr -e 1000 -c 2 -i 20 -a 2 -x {1.0 2.1 9 ------- null}
+ -t 0.204 -s 1 -d 2 -p cbr -e 1000 -c 2 -i 33 -a 2 -x {1.0 2.1 13 ------- null}
- -t 0.205777777777778 -s 0 -d 2 -p tcp -e 1040 -c 1 -i 27 -a 1 -x {0.0 2.0 9 ------- null}
h -t 0.205777777777778 -s 0 -d 2 -p tcp -e 1040 -c 1 -i 27 -a 1 -x {0.0 2.0 -1 ------- null}
r -t 0.206533333333333 -s 0 -d 2 -p tcp -e 1040 -c 1 -i 22 -a 1 -x {0.0 2.0 7 ------- null}
+ -t 0.206533333333333 -s 2 -d 0 -p ack -e 40 -c 1 -i 34 -a 1 -x {2.0 0.0 7 ------- null}
- -t 0.206533333333333 -s 2 -d 0 -p ack -e 40 -c 1 -i 34 -a 1 -x {2.0 0.0 7 ------- null}
h -t 0.206533333333333 -s 2 -d 0 -p ack -e 40 -c 1 -i 34 -a 1 -x {2.0 0.0 -1 ------- null}
- -t 0.206666666666667 -s 1 -d 2 -p cbr -e 1000 -c 2 -i 29 -a 2 -x {1.0 2.1 12 ------- null}
h -t 0.206666666666667 -s 1 -d 2 -p cbr -e 1000 -c 2 -i 29 -a 2 -x {1.0 2.1 -1 ------- null}
r -t 0.207644444444444 -s 2 -d 0 -p ack -e 40 -c 1 -i 30 -a 1 -x {2.0 0.0 6 ------- null}
+ -t 0.207644444444444 -s 0 -d 2 -p tcp -e 1040 -c 1 -i 35 -a 1 -x {0.0 2.0 13 ------- null}
+ -t 0.207644444444444 -s 0 -d 2 -p tcp -e 1040 -c 1 -i 36 -a 1 -x {0.0 2.0 14 ------- null}
r -t 0.207777777777778 -s 1 -d 2 -p cbr -e 1000 -c 2 -i 24 -a 2 -x {1.0 2.1 10 ------- null}
+ -t 0.212 -s 1 -d 2 -p cbr -e 1000 -c 2 -i 37 -a 2 -x {1.0 2.1 14 ------- null}
- -t 0.215022222222222 -s 0 -d 2 -p tcp -e 1040 -c 1 -i 28 -a 1 -x {0.0 2.0 10 ------- null}
h -t 0.215022222222222 -s 0 -d 2 -p tcp -e 1040 -c 1 -i 28 -a 1 -x {0.0 2.0 -1 ------- null}
- -t 0.215555555555556 -s 1 -d 2 -p cbr -e 1000 -c 2 -i 33 -a 2 -x {1.0 2.1 13 ------- null}
h -t 0.215555555555556 -s 1 -d 2 -p cbr -e 1000 -c 2 -i 33 -a 2 -x {1.0 2.1 -1 ------- null}
r -t 0.215777777777778 -s 0 -d 2 -p tcp -e 1040 -c 1 -i 23 -a 1 -x {0.0 2.0 8 ------- null}
+ -t 0.215777777777778 -s 2 -d 0 -p ack -e 40 -c 1 -i 38 -a 1 -x {2.0 0.0 8 ------- null}
- -t 0.215777777777778 -s 2 -d 0 -p ack -e 40 -c 1 -i 38 -a 1 -x {2.0 0.0 8 ------- null}
h -t 0.215777777777778 -s 2 -d 0 -p ack -e 40 -c 1 -i 38 -a 1 -x {2.0 0.0 -1 ------- null}
r -t 0.216666666666667 -s 1 -d 2 -p cbr -e 1000 -c 2 -i 25 -a 2 -x {1.0 2.1 11 ------- null}
r -t 0.216888888888889 -s 2 -d 0 -p ack -e 40 -c 1 -i 34 -a 1 -x {2.0 0.0 7 ------- null}
+ -t 0.216888888888889 -s 0 -d 2 -p tcp -e 1040 -c 1 -i 39 -a 1 -x {0.0 2.0 15 ------- null}
+ -t 0.22 -s 0 -d 2 -p tcp -e 1040 -c 1 -i 40 -a 1 -x {0.0 2.0 16 ------- null}
+ -t 0.22 -s 1 -d 2 -p cbr -e 1000 -c 2 -i 41 -a 2 -x {1.0 2.1 15 ------- null}
- -t 0.224266666666667 -s 0 -d 2 -p tcp -e 1040 -c 1 -i 31 -a 1 -x {0.0 2.0 11 ------- null}
h -t 0.224266666666667 -s 0 -d 2 -p tcp -e 1040 -c 1 -i 31 -a 1 -x {0.0 2.0 -1 ------- null}
- -t 0.224444444444444 -s 1 -d 2 -p cbr -e 1000 -c 2 -i 37 -a 2 -x {1.0 2.1 14 ------- null}
h -t 0.224444444444444 -s 1 -d 2 -p cbr -e 1000 -c 2 -i 37 -a 2 -x {1.0 2.1 -1 ------- null}
r -t 0.225022222222222 -s 0 -d 2 -p tcp -e 1040 -c 1 -i 27 -a 1 -x {0.0 2.0 9 ------- null}
+ -t 0.225022222222222 -s 2 -d 0 -p ack -e 40 -c 1 -i 42 -a 1 -x {2.0 0.0 9 ------- null}
- -t 0.225022222222222 -s 2 -d 0 -p ack -e 40 -c 1 -i 42 -a 1 -x {2.0 0.0 9 ------- null}
h -t 0.225022222222222 -s 2 -d 0 -p ack -e 40 -c 1 -i 42 -a 1 -x {2.0 0.0 -1 ------- null}
r -t 0.225555555555556 -s 1 -d 2 -p cbr -e 1000 -c 2 -i 29 -a 2 -x {1.0 2.1 12 ------- null}
r -t 0.226133333333333 -s 2 -d 0 -p ack -e 40 -c 1 -i 38 -a 1 -x {2.0 0.0 8 ------- null}
+ -t 0.228 -s 0 -d 2 -p tcp -e 1040 -c 1 -i 43 -a 1 -x {0.0 2.0 17 ------- null}
+ -t 0.228 -s 1 -d 2 -p cbr -e 1000 -c 2 -i 44 -a 2 -x {1.0 2.1 16 ------- null}
- -t 0.233333333333333 -s 1 -d 2 -p cbr -e 1000 -c 2 -i 41 -a 2 -x {1.0 2.1 15 ------- null}
h -t 0.233333333333333 -s 1 -d 2 -p cbr -e 1000 -c 2 -i 41 -a 2 -x {1.0 2.1 -1 ------- null}
- -t 0.233511111111111 -s 0 -d 2 -p tcp -e 1040 -c 1 -i 32 -a 1 -x {0.0 2.0 12 ------- null}
h -t 0.233511111111111 -s 0 -d 2 -p tcp -e 1040 -c 1 -i 32 -a 1 -x {0.0 2.0 -1 ------- null}
r -t 0.234266666666667 -s 0 -d 2 -p tcp -e 1040 -c 1 -i 28 -a 1 -x {0.0 2.0 10 ------- null}
+ -t 0.234266666666667 -s 2 -d 0 -p ack -e 40 -c 1 -i 45 -a 1 -x {2.0 0.0 10 ------- null}
- -t 0.234266666666667 -s 2 -d 0 -p ack -e 40 -c 1 -i 45 -a 1 -x {2.0 0.0 10 ------- null}
h -t 0.234266666666667 -s 2 -d 0 -p ack -e 40 -c 1 -i 45 -a 1 -x {2.0 0.0 -1 ------- null}
r -t 0.234444444444444 -s 1 -d 2 -p cbr -e 1000 -c 2 -i 33 -a 2 -x {1.0 2.1 13 ------- null}
r -t 0.235377777777778 -s 2 -d 0 -p ack -e 40 -c 1 -i 42 -a 1 -x {2.0 0.0 9 ------- null}
+ -t 0.236 -s 0 -d 2 -p tcp -e 1040 -c 1 -i 46 -a 1 -x {0.0 2.0 18 ------- null}
+ -t 0.236 -s 1 -d 2 -p cbr -e 1000 -c 2 -i 47 -a 2 -x {1.0 2.1 17 ------- null}
- -t 0.242222222222222 -s 1 -d 2 -p cbr -e 1000 -c 2 -i 44 -a 2 -x {1.0 2.1 16 ------- null}
h -t 0.242222222222222 -s 1 -d 2 -p cbr -e 1000 -c 2 -i 44 -a 2 -x {1.0 2.1 -1 ------- null}
- -t 0.242755555555556 -s 0 -d 2 -p tcp -e 1040 -c 1 -i 35 -a 1 -x {0.0 2.0 13 ------- null}
h -t 0.242755555555556 -s 0 -d 2 -p tcp -e 1040 -c 1 -i 35 -a 1 -x {0.0 2.0 -1 ------- null}
r -t 0.243333333333333 -s 1 -d 2 -p cbr -e 1000 -c 2 -i 37 -a 2 -x {1.0 2.1 14 ------- null}
r -t 0.243511111111111 -s 0 -d 2 -p tcp -e 1040 -c 1 -i 31 -a 1 -x {0.0 2.0 11 ------- null}
+ -t 0.243511111111111 -s 2 -d 0 -p ack -e 40 -c 1 -i 48 -a 1 -x {2.0 0.0 11 ------- null}
- -t 0.243511111111111 -s 2 -d 0 -p ack -e 40 -c 1 -i 48 -a 1 -x {2.0 0.0 11 ------- null}
h -t 0.243511111111111 -s 2 -d 0 -p ack -e 40 -c 1 -i 48 -a 1 -x {2.0 0.0 -1 ------- null}
+ -t 0.244 -s 0 -d 2 -p tcp -e 1040 -c 1 -i 49 -a 1 -x {0.0 2.0 19 ------- null}
+ -t 0.244 -s 1 -d 2 -p cbr -e 1000 -c 2 -i 50 -a 2 -x {1.0 2.1 18 ------- null}
r -t 0.244622222222222 -s 2 -d 0 -p ack -e 40 -c 1 -i 45 -a 1 -x {2.0 0.0 10 ------- null}
- -t 0.251111111111111 -s 1 -d 2 -p cbr -e 1000 -c 2 -i 47 -a 2 -x {1.0 2.1 17 ------- null}
h -t 0.251111111111111 -s 1 -d 2 -p cbr -e 1000 -c 2 -i 47 -a 2 -x {1.0 2.1 -1 ------- null}
- -t 0.252 -s 0 -d 2 -p tcp -e 1040 -c 1 -i 36 -a 1 -x {0.0 2.0 14 ------- null}
h -t 0.252 -s 0 -d 2 -p tcp -e 1040 -c 1 -i 36 -a 1 -x {0.0 2.0 -1 ------- null}
+ -t 0.252 -s 0 -d 2 -p tcp -e 1040 -c 1 -i 51 -a 1 -x {0.0 2.0 20 ------- null}
+ -t 0.252 -s 1 -d 2 -p cbr -e 1000 -c 2 -i 52 -a 2 -x {1.0 2.1 19 ------- null}
r -t 0.252222222222222 -s 1 -d 2 -p cbr -e 1000 -c 2 -i 41 -a 2 -x {1.0 2.1 15 ------- null}
r -t 0.252755555555556 -s 0 -d 2 -p tcp -e 1040 -c 1 -i 32 -a 1 -x {0.0 2.0 12 ------- null}
+ -t 0.252755555555556 -s 2 -d 0 -p ack -e 40 -c 1 -i 53 -a 1 -x {2.0 0.0 12 ------- null}
- -t 0.252755555555556 -s 2 -d 0 -p ack -e 40 -c 1 -i 53 -a 1 -x {2.0 0.0 12 ------- null}
h -t 0.252755555555556 -s 2 -d 0 -p ack -e 40 -c 1 -i 53 -a 1 -x {2.0 0.0 -1 ------- null}
r -t 0.253866666666667 -s 2 -d 0 -p ack -e 40 -c 1 -i 48 -a 1 -x {2.0 0.0 11 ------- null}
- -t 0.26 -s 1 -d 2 -p cbr -e 1000 -c 2 -i 50 -a 2 -x {1.0 2.1 18 ------- null}
h -t 0.26 -s 1 -d 2 -p cbr -e 1000 -c 2 -i 50 -a 2 -x {1.0 2.1 -1 ------- null}
+ -t 0.26 -s 0 -d 2 -p tcp -e 1040 -c 1 -i 54 -a 1 -x {0.0 2.0 21 ------- null}
+ -t 0.26 -s 1 -d 2 -p cbr -e 1000 -c 2 -i 55 -a 2 -x {1.0 2.1 20 ------- null}
r -t 0.261111111111111 -s 1 -d 2 -p cbr -e 1000 -c 2 -i 44 -a 2 -x {1.0 2.1 16 ------- null}
- -t 0.261244444444444 -s 0 -d 2 -p tcp -e 1040 -c 1 -i 39 -a 1 -x {0.0 2.0 15 ------- null}
h -t 0.261244444444444 -s 0 -d 2 -p tcp -e 1040 -c 1 -i 39 -a 1 -x {0.0 2.0 -1 ------- null}
r -t 0.262 -s 0 -d 2 -p tcp -e 1040 -c 1 -i 35 -a 1 -x {0.0 2.0 13 ------- null}
+ -t 0.262 -s 2 -d 0 -p ack -e 40 -c 1 -i 56 -a 1 -x {2.0 0.0 13 ------- null}
- -t 0.262 -s 2 -d 0 -p ack -e 40 -c 1 -i 56 -a 1 -x {2.0 0.0 13 ------- null}
h -t 0.262 -s 2 -d 0 -p ack -e 40 -c 1 -i 56 -a 1 -x {2.0 0.0 -1 ------- null}
r -t 0.263111111111111 -s 2 -d 0 -p ack -e 40 -c 1 -i 53 -a 1 -x {2.0 0.0 12 ------- null}
+ -t 0.268 -s 0 -d 2 -p tcp -e 1040 -c 1 -i 57 -a 1 -x {0.0 2.0 22 ------- null}
+ -t 0.268 -s 1 -d 2 -p cbr -e 1000 -c 2 -i 58 -a 2 -x {1.0 2.1 21 ------- null}
- -t 0.268888888888889 -s 1 -d 2 -p cbr -e 1000 -c 2 -i 52 -a 2 -x {1.0 2.1 19 ------- null}
h -t 0.268888888888889 -s 1 -d 2 -p cbr -e 1000 -c 2 -i 52 -a 2 -x {1.0 2.1 -1 ------- null}
r -t 0.27 -s 1 -d 2 -p cbr -e 1000 -c 2 -i 47 -a 2 -x {1.0 2.1 17 ------- null}
- -t 0.270488888888889 -s 0 -d 2 -p tcp -e 1040 -c 1 -i 40 -a 1 -x {0.0 2.0 16 ------- null}
h -t 0.270488888888889 -s 0 -d 2 -p tcp -e 1040 -c 1 -i 40 -a 1 -x {0.0 2.0 -1 ------- null}
r -t 0.271244444444444 -s 0 -d 2 -p tcp -e 1040 -c 1 -i 36 -a 1 -x {0.0 2.0 14 ------- null}
+ -t 0.271244444444444 -s 2 -d 0 -p ack -e 40 -c 1 -i 59 -a 1 -x {2.0 0.0 14 ------- null}
- -t 0.271244444444444 -s 2 -d 0 -p ack -e 40 -c 1 -i 59 -a 1 -x {2.0 0.0 14 ------- null}
h -t 0.271244444444444 -s 2 -d 0 -p ack -e 40 -c 1 -i 59 -a 1 -x {2.0 0.0 -1 ------- null}
r -t 0.272355555555556 -s 2 -d 0 -p ack -e 40 -c 1 -i 56 -a 1 -x {2.0 0.0 13 ------- null}
+ -t 0.276 -s 0 -d 2 -p tcp -e 1040 -c 1 -i 60 -a 1 -x {0.0 2.0 23 ------- null}
+ -t 0.276 -s 1 -d 2 -p cbr -e 1000 -c 2 -i 61 -a 2 -x {1.0 2.1 22 ------- null}
- -t 0.277777777777778 -s 1 -d 2 -p cbr -e 1000 -c 2 -i 55 -a 2 -x {1.0 2.1 20 ------- null}
h -t 0.277777777777778 -s 1 -d 2 -p cbr -e 1000 -c 2 -i 55 -a 2 -x {1.0 2.1 -1 ------- null}
r -t 0.278888888888889 -s 1 -d 2 -p cbr -e 1000 -c 2 -i 50 -a 2 -x {1.0 2.1 18 ------- null}
- -t 0.279733333333333 -s 0 -d 2 -p tcp -e 1040 -c 1 -i 43 -a 1 -x {0.0 2.0 17 ------- null}
h -t 0.279733333333333 -s 0 -d 2 -p tcp -e 1040 -c 1 -i 43 -a 1 -x {0.0 2.0 -1 ------- null}
r -t 0.280488888888889 -s 0 -d 2 -p tcp -e 1040 -c 1 -i 39 -a 1 -x {0.0 2.0 15 ------- null}
+ -t 0.280488888888889 -s 2 -d 0 -p ack -e 40 -c 1 -i 62 -a 1 -x {2.0 0.0 15 ------- null}
- -t 0.280488888888889 -s 2 -d 0 -p ack -e 40 -c 1 -i 62 -a 1 -x {2.0 0.0 15 ------- null}
h -t 0.280488888888889 -s 2 -d 0 -p ack -e 40 -c 1 -i 62 -a 1 -x {2.0 0.0 -1 ------- null}
r -t 0.2816 -s 2 -d 0 -p ack -e 40 -c 1 -i 59 -a 1 -x {2.0 0.0 14 ------- null}
+ -t 0.284 -s 0 -d 2 -p tcp -e 1040 -c 1 -i 63 -a 1 -x {0.0 2.0 24 ------- null}
+ -t 0.284 -s 1 -d 2 -p cbr -e 1000 -c 2 -i 64 -a 2 -x {1.0 2.1 23 ------- null}
- -t 0.286666666666667 -s 1 -d 2 -p cbr -e 1000 -c 2 -i 58 -a 2 -x {1.0 2.1 21 ------- null}
h -t 0.286666666666667 -s 1 -d 2 -p cbr -e 1000 -c 2 -i 58 -a 2 -x {1.0 2.1 -1 ------- null}
r -t 0.287777777777778 -s 1 -d 2 -p cbr -e 1000 -c 2 -i 52 -a 2 -x {1.0 2.1 19 ------- null}
- -t 0.288977777777778 -s 0 -d 2 -p tcp -e 1040 -c 1 -i 46 -a 1 -x {0.0 2.0 18 ------- null}
h -t 0.288977777777778 -s 0 -d 2 -p tcp -e 1040 -c 1 -i 46 -a 1 -x {0.0 2.0 -1 ------- null}
r -t 0.289733333333333 -s 0 -d 2 -p tcp -e 1040 -c 1 -i 40 -a 1 -x {0.0 2.0 16 ------- null}
+ -t 0.289733333333333 -s 2 -d 0 -p ack -e 40 -c 1 -i 65 -a 1 -x {2.0 0.0 16 ------- null}
- -t 0.289733333333333 -s 2 -d 0 -p ack -e 40 -c 1 -i 65 -a 1 -x {2.0 0.0 16 ------- null}
h -t 0.289733333333333 -s 2 -d 0 -p ack -e 40 -c 1 -i 65 -a 1 -x {2.0 0.0 -1 ------- null}
r -t 0.290844444444444 -s 2 -d 0 -p ack -e 40 -c 1 -i 62 -a 1 -x {2.0 0.0 15 ------- null}
+ -t 0.292 -s 0 -d 2 -p tcp -e 1040 -c 1 -i 66 -a 1 -x {0.0 2.0 25 ------- null}
+ -t 0.292 -s 1 -d 2 -p cbr -e 1000 -c 2 -i 67 -a 2 -x {1.0 2.1 24 ------- null}
- -t 0.295555555555556 -s 1 -d 2 -p cbr -e 1000 -c 2 -i 61 -a 2 -x {1.0 2.1 22 ------- null}
h -t 0.295555555555556 -s 1 -d 2 -p cbr -e 1000 -c 2 -i 61 -a 2 -x {1.0 2.1 -1 ------- null}
r -t 0.296666666666667 -s 1 -d 2 -p cbr -e 1000 -c 2 -i 55 -a 2 -x {1.0 2.1 20 ------- null}
- -t 0.298222222222222 -s 0 -d 2 -p tcp -e 1040 -c 1 -i 49 -a 1 -x {0.0 2.0 19 ------- null}
h -t 0.298222222222222 -s 0 -d 2 -p tcp -e 1040 -c 1 -i 49 -a 1 -x {0.0 2.0 -1 ------- null}
r -t 0.298977777777778 -s 0 -d 2 -p tcp -e 1040 -c 1 -i 43 -a 1 -x {0.0 2.0 17 ------- null}
+ -t 0.298977777777778 -s 2 -d 0 -p ack -e 40 -c 1 -i 68 -a 1 -x {2.0 0.0 17 ------- null}
- -t 0.298977777777778 -s 2 -d 0 -p ack -e 40 -c 1 -i 68 -a 1 -x {2.0 0.0 17 ------- null}
h -t 0.298977777777778 -s 2 -d 0 -p ack -e 40 -c 1 -i 68 -a 1 -x {2.0 0.0 -1 ------- null}
+ -t 0.3 -s 0 -d 2 -p tcp -e 1040 -c 1 -i 69 -a 1 -x {0.0 2.0 26 ------- null}
+ -t 0.3 -s 1 -d 2 -p cbr -e 1000 -c 2 -i 70 -a 2 -x {1.0 2.1 25 ------- null}
r -t 0.300088888888889 -s 2 -d 0 -p ack -e 40 -c 1 -i 65 -a 1 -x {2.0 0.0 16 ------- null}
- -t 0.304444444444444 -s 1 -d 2 -p cbr -e 1000 -c 2 -i 64 -a 2 -x {1.0 2.1 23 ------- null}
h -t 0.304444444444444 -s 1 -d 2 -p cbr -e 1000 -c 2 -i 64 -a 2 -x {1.0 2.1 -1 ------- null}
r -t 0.305555555555556 -s 1 -d 2 -p cbr -e 1000 -c 2 -i 58 -a 2 -x {1.0 2.1 21 ------- null}
- -t 0.307466666666667 -s 0 -d 2 -p tcp -e 1040 -c 1 -i 51 -a 1 -x {0.0 2.0 20 ------- null}
h -t 0.307466666666667 -s 0 -d 2 -p tcp -e 1040 -c 1 -i 51 -a 1 -x {0.0 2.0 -1 ------- null}
+ -t 0.308 -s 0 -d 2 -p tcp -e 1040 -c 1 -i 71 -a 1 -x {0.0 2.0 27 ------- null}
+ -t 0.308 -s 1 -d 2 -p cbr -e 1000 -c 2 -i 72 -a 2 -x {1.0 2.1 26 ------- null}
r -t 0.308222222222222 -s 0 -d 2 -p tcp -e 1040 -c 1 -i 46 -a 1 -x {0.0 2.0 18 ------- null}
+ -t 0.308222222222222 -s 2 -d 0 -p ack -e 40 -c 1 -i 73 -a 1 -x {2.0 0.0 18 ------- null}
- -t 0.308222222222222 -s 2 -d 0 -p ack -e 40 -c 1 -i 73 -a 1 -x {2.0 0.0 18 ------- null}
h -t 0.308222222222222 -s 2 -d 0 -p ack -e 40 -c 1 -i 73 -a 1 -x {2.0 0.0 -1 ------- null}
r -t 0.309333333333333 -s 2 -d 0 -p ack -e 40 -c 1 -i 68 -a 1 -x {2.0 0.0 17 ------- null}
- -t 0.313333333333333 -s 1 -d 2 -p cbr -e 1000 -c 2 -i 67 -a 2 -x {1.0 2.1 24 ------- null}
h -t 0.313333333333333 -s 1 -d 2 -p cbr -e 1000 -c 2 -i 67 -a 2 -x {1.0 2.1 -1 ------- null}
r -t 0.314444444444444 -s 1 -d 2 -p cbr -e 1000 -c 2 -i 61 -a 2 -x {1.0 2.1 22 ------- null}
+ -t 0.316 -s 0 -d 2 -p tcp -e 1040 -c 1 -i 74 -a 1 -x {0.0 2.0 28 ------- null}
+ -t 0.316 -s 1 -d 2 -p cbr -e 1000 -c 2 -i 75 -a 2 -x {1.0 2.1 27 ------- null}
- -t 0.316711111111111 -s 0 -d 2 -p tcp -e 1040 -c 1 -i 54 -a 1 -x {0.0 2.0 21 ------- null}
h -t 0.316711111111111 -s 0 -d 2 -p tcp -e 1040 -c 1 -i 54 -a 1 -x {0.0 2.0 -1 ------- null}
r -t 0.317466666666667 -s 0 -d 2 -p tcp -e 1040 -c 1 -i 49 -a 1 -x {0.0 2.0 19 ------- null}
+ -t 0.317466666666667 -s 2 -d 0 -p ack -e 40 -c 1 -i 76 -a 1 -x {2.0 0.0 19 ------- null}
- -t 0.317466666666667 -s 2 -d 0 -p ack -e 40 -c 1 -i 76 -a 1 -x {2.0 0.0 19 ------- null}
h -t 0.317466666666667 -s 2 -d 0 -p ack -e 40 -c 1 -i 76 -a 1 -x {2.0 0.0 -1 ------- null}
r -t 0.318577777777778 -s 2 -d 0 -p ack -e 40 -c 1 -i 73 -a 1 -x {2.0 0.0 18 ------- null}
- -t 0.322222222222222 -s 1 -d 2 -p cbr -e 1000 -c 2 -i 70 -a 2 -x {1.0 2.1 25 ------- null}
h -t 0.322222222222222 -s 1 -d 2 -p cbr -e 1000 -c 2 -i 70 -a 2 -x {1.0 2.1 -1 ------- null}
r -t 0.323333333333333 -s 1 -d 2 -p cbr -e 1000 -c 2 -i 64 -a 2 -x {1.0 2.1 23 ------- null}
+ -t 0.324 -s 0 -d 2 -p tcp -e 1040 -c 1 -i 77 -a 1 -x {0.0 2.0 29 ------- null}
+ -t 0.324 -s 1 -d 2 -p cbr -e 1000 -c 2 -i 78 -a 2 -x {1.0 2.1 28 ------- null}
- -t 0.325955555555556 -s 0 -d 2 -p tcp -e 1040 -c 1 -i 57 -a 1 -x {0.0 2.0 22 ------- null}
h -t 0.325955555555556 -s 0 -d 2 -p tcp -e 1040 -c 1 -i 57 -a 1 -x {0.0 2.0 -1 ------- null}
r -t 0.326711111111111 -s 0 -d 2 -p tcp -e 1040 -c 1 -i 51 -a 1 -x {0.0 2.0 20 ------- null}
+ -t 0.326711111111111 -s 2 -d 0 -p ack -e 40 -c 1 -i 79 -a 1 -x {2.0 0.0 20 ------- null}
- -t 0.326711111111111 -s 2 -d 0 -p ack -e 40 -c 1 -i 79 -a 1 -x {2.0 0.0 20 ------- null}
h -t 0.326711111111111 -s 2 -d 0 -p ack -e 40 -c 1 -i 79 -a 1 -x {2.0 0.0 -1 ------- null}
r -t 0.327822222222222 -s 2 -d 0 -p ack -e 40 -c 1 -i 76 -a 1 -x {2.0 0.0 19 ------- null}
- -t 0.331111111111111 -s 1 -d 2 -p cbr -e 1000 -c 2 -i 72 -a 2 -x {1.0 2.1 26 ------- null}
h -t 0.331111111111111 -s 1 -d 2 -p cbr -e 1000 -c 2 -i 72 -a 2 -x {1.0 2.1 -1 ------- null}
+ -t 0.332 -s 0 -d 2 -p tcp -e 1040 -c 1 -i 80 -a 1 -x {0.0 2.0 30 ------- null}
+ -t 0.332 -s 1 -d 2 -p cbr -e 1000 -c 2 -i 81 -a 2 -x {1.0 2.1 29 ------- null}
r -t 0.332222222222222 -s 1 -d 2 -p cbr -e 1000 -c 2 -i 67 -a 2 -x {1.0 2.1 24 ------- null}
- -t 0.3352 -s 0 -d 2 -p tcp -e 1040 -c 1 -i 60 -a 1 -x {0.0 2.0 23 ------- null}
h -t 0.3352 -s 0 -d 2 -p tcp -e 1040 -c 1 -i 60 -a 1 -x {0.0 2.0 -1 ------- null}
r -t 0.335955555555556 -s 0 -d 2 -p tcp -e 1040 -c 1 -i 54 -a 1 -x {0.0 2.0 21 ------- null}
+ -t 0.335955555555556 -s 2 -d 0 -p ack -e 40 -c 1 -i 82 -a 1 -x {2.0 0.0 21 ------- null}
- -t 0.335955555555556 -s 2 -d 0 -p ack -e 40 -c 1 -i 82 -a 1 -x {2.0 0.0 21 ------- null}
h -t 0.335955555555556 -s 2 -d 0 -p ack -e 40 -c 1 -i 82 -a 1 -x {2.0 0.0 -1 ------- null}
r -t 0.337066666666667 -s 2 -d 0 -p ack -e 40 -c 1 -i 79 -a 1 -x {2.0 0.0 20 ------- null}
- -t 0.34 -s 1 -d 2 -p cbr -e 1000 -c 2 -i 75 -a 2 -x {1.0 2.1 27 ------- null}
h -t 0.34 -s 1 -d 2 -p cbr -e 1000 -c 2 -i 75 -a 2 -x {1.0 2.1 -1 ------- null}
+ -t 0.34 -s 0 -d 2 -p tcp -e 1040 -c 1 -i 83 -a 1 -x {0.0 2.0 31 ------- null}
+ -t 0.34 -s 1 -d 2 -p cbr -e 1000 -c 2 -i 84 -a 2 -x {1.0 2.1 30 ------- null}
r -t 0.341111111111111 -s 1 -d 2 -p cbr -e 1000 -c 2 -i 70 -a 2 -x {1.0 2.1 25 ------- null}
- -t 0.344444444444444 -s 0 -d 2 -p tcp -e 1040 -c 1 -i 63 -a 1 -x {0.0 2.0 24 ------- null}
h -t 0.344444444444444 -s 0 -d 2 -p tcp -e 1040 -c 1 -i 63 -a 1 -x {0.0 2.0 -1 ------- null}
r -t 0.3452 -s 0 -d 2 -p tcp -e 1040 -c 1 -i 57 -a 1 -x {0.0 2.0 22 ------- null}
+ -t 0.3452 -s 2 -d 0 -p ack -e 40 -c 1 -i 85 -a 1 -x {2.0 0.0 22 ------- null}
- -t 0.3452 -s 2 -d 0 -p ack -e 40 -c 1 -i 85 -a 1 -x {2.0 0.0 22 ------- null}
h -t 0.3452 -s 2 -d 0 -p ack -e 40 -c 1 -i 85 -a 1 -x {2.0 0.0 -1 ------- null}
r -t 0.346311111111111 -s 2 -d 0 -p ack -e 40 -c 1 -i 82 -a 1 -x {2.0 0.0 21 ------- null}
+ -t 0.348 -s 0 -d 2 -p tcp -e 1040 -c 1 -i 86 -a 1 -x {0.0 2.0 32 ------- null}
+ -t 0.348 -s 1 -d 2 -p cbr -e 1000 -c 2 -i 87 -a 2 -x {1.0 2.1 31 ------- null}
- -t 0.348888888888889 -s 1 -d 2 -p cbr -e 1000 -c 2 -i 78 -a 2 -x {1.0 2.1 28 ------- null}
h -t 0.348888888888889 -s 1 -d 2 -p cbr -e 1000 -c 2 -i 78 -a 2 -x {1.0 2.1 -1 ------- null}
r -t 0.35 -s 1 -d 2 -p cbr -e 1000 -c 2 -i 72 -a 2 -x {1.0 2.1 26 ------- null}
- -t 0.353688888888889 -s 0 -d 2 -p tcp -e 1040 -c 1 -i 66 -a 1 -x {0.0 2.0 25 ------- null}
h -t 0.353688888888889 -s 0 -d 2 -p tcp -e 1040 -c 1 -i 66 -a 1 -x {0.0 2.0 -1 ------- null}
r -t 0.354444444444444 -s 0 -d 2 -p tcp -e 1040 -c 1 -i 60 -a 1 -x {0.0 2.0 23 ------- null}
+ -t 0.354444444444444 -s 2 -d 0 -p ack -e 40 -c 1 -i 88 -a 1 -x {2.0 0.0 23 ------- null}
- -t 0.354444444444444 -s 2 -d 0 -p ack -e 40 -c 1 -i 88 -a 1 -x {2.0 0.0 23 ------- null}
h -t 0.354444444444444 -s 2 -d 0 -p ack -e 40 -c 1 -i 88 -a 1 -x {2.0 0.0 -1 ------- null}
r -t 0.355555555555556 -s 2 -d 0 -p ack -e 40 -c 1 -i 85 -a 1 -x {2.0 0.0 22 ------- null}
+ -t 0.356 -s 0 -d 2 -p tcp -e 1040 -c 1 -i 89 -a 1 -x {0.0 2.0 33 ------- null}
+ -t 0.356 -s 1 -d 2 -p cbr -e 1000 -c 2 -i 90 -a 2 -x {1.0 2.1 32 ------- null}
- -t 0.357777777777778 -s 1 -d 2 -p cbr -e 1000 -c 2 -i 81 -a 2 -x {1.0 2.1 29 ------- null}
h -t 0.357777777777778 -s 1 -d 2 -p cbr -e 1000 -c 2 -i 81 -a 2 -x {1.0 2.1 -1 ------- null}
r -t 0.358888888888889 -s 1 -d 2 -p cbr -e 1000 -c 2 -i 75 -a 2 -x {1.0 2.1 27 ------- null}
- -t 0.362933333333333 -s 0 -d 2 -p tcp -e 1040 -c 1 -i 69 -a 1 -x {0.0 2.0 26 ------- null}
h -t 0.362933333333333 -s 0 -d 2 -p tcp -e 1040 -c 1 -i 69 -a 1 -x {0.0 2.0 -1 ------- null}
r -t 0.363688888888889 -s 0 -d 2 -p tcp -e 1040 -c 1 -i 63 -a 1 -x {0.0 2.0 24 ------- null}
+ -t 0.363688888888889 -s 2 -d 0 -p ack -e 40 -c 1 -i 91 -a 1 -x {2.0 0.0 24 ------- null}
- -t 0.363688888888889 -s 2 -d 0 -p ack -e 40 -c 1 -i 91 -a 1 -x {2.0 0.0 24 ------- null}
h -t 0.363688888888889 -s 2 -d 0 -p ack -e 40 -c 1 -i 91 -a 1 -x {2.0 0.0 -1 ------- null}
+ -t 0.364 -s 0 -d 2 -p tcp -e 1040 -c 1 -i 92 -a 1 -x {0.0 2.0 34 ------- null}