+ 0.1 0 2 tcp 40 ------- 1 0.0 2.0 0 0
- 0.1 0 2 tcp 40 ------- 1 0.0 2.0 0 0
+ 0.1 1 2 cbr 1000 ------- 2 1.0 2.1 0 1
- 0.1 1 2 cbr 1000 ------- 2 1.0 2.1 0 1
+ 0.108 1 2 cbr 1000 ------- 2 1.0 2.1 1 2
- 0.108889 1 2 cbr 1000 ------- 2 1.0 2.1 1 2
r 0.110356 0 2 tcp 40 ------- 1 0.0 2.0 0 0
+ 0.110356 2 0 ack 40 ------- 1 2.0 0.0 0 3
- 0.110356 2 0 ack 40 ------- 1 2.0 0.0 0 3
+ 0.116 1 2 cbr 1000 ------- 2 1.0 2.1 2 4
- 0.117778 1 2 cbr 1000 ------- 2 1.0 2.1 2 4
r 0.118889 1 2 cbr 1000 ------- 2 1.0 2.1 0 1
r 0.120711 2 0 ack 40 ------- 1 2.0 0.0 0 3
+ 0.120711 0 2 tcp 1040 ------- 1 0.0 2.0 1 5
- 0.120711 0 2 tcp 1040 ------- 1 0.0 2.0 1 5
+ 0.120711 0 2 tcp 1040 ------- 1 0.0 2.0 2 6
+ 0.124 1 2 cbr 1000 ------- 2 1.0 2.1 3 7
- 0.126667 1 2 cbr 1000 ------- 2 1.0 2.1 3 7
r 0.127778 1 2 cbr 1000 ------- 2 1.0 2.1 1 2
- 0.129956 0 2 tcp 1040 ------- 1 0.0 2.0 2 6
+ 0.132 1 2 cbr 1000 ------- 2 1.0 2.1 4 8
- 0.135556 1 2 cbr 1000 ------- 2 1.0 2.1 4 8
r 0.136667 1 2 cbr 1000 ------- 2 1.0 2.1 2 4
r 0.139956 0 2 tcp 1040 ------- 1 0.0 2.0 1 5
+ 0.139956 2 0 ack 40 ------- 1 2.0 0.0 1 9
- 0.139956 2 0 ack 40 ------- 1 2.0 0.0 1 9
+ 0.14 1 2 cbr 1000 ------- 2 1.0 2.1 5 10
- 0.144444 1 2 cbr 1000 ------- 2 1.0 2.1 5 10
r 0.145556 1 2 cbr 1000 ------- 2 1.0 2.1 3 7
+ 0.148 1 2 cbr 1000 ------- 2 1.0 2.1 6 11
r 0.1492 0 2 tcp 1040 ------- 1 0.0 2.0 2 6
+ 0.1492 2 0 ack 40 ------- 1 2.0 0.0 2 12
- 0.1492 2 0 ack 40 ------- 1 2.0 0.0 2 12
r 0.150311 2 0 ack 40 ------- 1 2.0 0.0 1 9
+ 0.150311 0 2 tcp 1040 ------- 1 0.0 2.0 3 13
- 0.150311 0 2 tcp 1040 ------- 1 0.0 2.0 3 13
+ 0.150311 0 2 tcp 1040 ------- 1 0.0 2.0 4 14
- 0.153333 1 2 cbr 1000 ------- 2 1.0 2.1 6 11
r 0.154444 1 2 cbr 1000 ------- 2 1.0 2.1 4 8
+ 0.156 1 2 cbr 1000 ------- 2 1.0 2.1 7 15
r 0.159556 2 0 ack 40 ------- 1 2.0 0.0 2 12
+ 0.159556 0 2 tcp 1040 ------- 1 0.0 2.0 5 16
+ 0.159556 0 2 tcp 1040 ------- 1 0.0 2.0 6 17
- 0.159556 0 2 tcp 1040 ------- 1 0.0 2.0 4 14
- 0.162222 1 2 cbr 1000 ------- 2 1.0 2.1 7 15
r 0.163333 1 2 cbr 1000 ------- 2 1.0 2.1 5 10
+ 0.164 1 2 cbr 1000 ------- 2 1.0 2.1 8 18
- 0.1688 0 2 tcp 1040 ------- 1 0.0 2.0 5 16
r 0.169556 0 2 tcp 1040 ------- 1 0.0 2.0 3 13
+ 0.169556 2 0 ack 40 ------- 1 2.0 0.0 3 19
- 0.169556 2 0 ack 40 ------- 1 2.0 0.0 3 19
- 0.171111 1 2 cbr 1000 ------- 2 1.0 2.1 8 18
+ 0.172 1 2 cbr 1000 ------- 2 1.0 2.1 9 20
r 0.172222 1 2 cbr 1000 ------- 2 1.0 2.1 6 11
- 0.178044 0 2 tcp 1040 ------- 1 0.0 2.0 6 17
r 0.1788 0 2 tcp 1040 ------- 1 0.0 2.0 4 14
+ 0.1788 2 0 ack 40 ------- 1 2.0 0.0 4 21
- 0.1788 2 0 ack 40 ------- 1 2.0 0.0 4 21
r 0.179911 2 0 ack 40 ------- 1 2.0 0.0 3 19
+ 0.179911 0 2 tcp 1040 ------- 1 0.0 2.0 7 22
+ 0.179911 0 2 tcp 1040 ------- 1 0.0 2.0 8 23
- 0.18 1 2 cbr 1000 ------- 2 1.0 2.1 9 20
+ 0.18 1 2 cbr 1000 ------- 2 1.0 2.1 10 24
r 0.181111 1 2 cbr 1000 ------- 2 1.0 2.1 7 15
- 0.187289 0 2 tcp 1040 ------- 1 0.0 2.0 7 22
+ 0.188 1 2 cbr 1000 ------- 2 1.0 2.1 11 25
r 0.188044 0 2 tcp 1040 ------- 1 0.0 2.0 5 16
+ 0.188044 2 0 ack 40 ------- 1 2.0 0.0 5 26
- 0.188044 2 0 ack 40 ------- 1 2.0 0.0 5 26
- 0.188889 1 2 cbr 1000 ------- 2 1.0 2.1 10 24
r 0.189156 2 0 ack 40 ------- 1 2.0 0.0 4 21
+ 0.189156 0 2 tcp 1040 ------- 1 0.0 2.0 9 27
+ 0.189156 0 2 tcp 1040 ------- 1 0.0 2.0 10 28
r 0.19 1 2 cbr 1000 ------- 2 1.0 2.1 8 18
+ 0.196 1 2 cbr 1000 ------- 2 1.0 2.1 12 29
- 0.196533 0 2 tcp 1040 ------- 1 0.0 2.0 8 23
r 0.197289 0 2 tcp 1040 ------- 1 0.0 2.0 6 17
+ 0.197289 2 0 ack 40 ------- 1 2.0 0.0 6 30
- 0.197289 2 0 ack 40 ------- 1 2.0 0.0 6 30
- 0.197778 1 2 cbr 1000 ------- 2 1.0 2.1 11 25
r 0.1984 2 0 ack 40 ------- 1 2.0 0.0 5 26
+ 0.1984 0 2 tcp 1040 ------- 1 0.0 2.0 11 31
+ 0.1984 0 2 tcp 1040 ------- 1 0.0 2.0 12 32
r 0.198889 1 2 cbr 1000 ------- 2 1.0 2.1 9 20
+ 0.204 1 2 cbr 1000 ------- 2 1.0 2.1 13 33
- 0.205778 0 2 tcp 1040 ------- 1 0.0 2.0 9 27
r 0.206533 0 2 tcp 1040 ------- 1 0.0 2.0 7 22
+ 0.206533 2 0 ack 40 ------- 1 2.0 0.0 7 34
- 0.206533 2 0 ack 40 ------- 1 2.0 0.0 7 34
- 0.206667 1 2 cbr 1000 ------- 2 1.0 2.1 12 29
r 0.207644 2 0 ack 40 ------- 1 2.0 0.0 6 30
+ 0.207644 0 2 tcp 1040 ------- 1 0.0 2.0 13 35
+ 0.207644 0 2 tcp 1040 ------- 1 0.0 2.0 14 36
r 0.207778 1 2 cbr 1000 ------- 2 1.0 2.1 10 24
+ 0.212 1 2 cbr 1000 ------- 2 1.0 2.1 14 37
- 0.215022 0 2 tcp 1040 ------- 1 0.0 2.0 10 28
- 0.215556 1 2 cbr 1000 ------- 2 1.0 2.1 13 33
r 0.215778 0 2 tcp 1040 ------- 1 0.0 2.0 8 23
+ 0.215778 2 0 ack 40 ------- 1 2.0 0.0 8 38
- 0.215778 2 0 ack 40 ------- 1 2.0 0.0 8 38
r 0.216667 1 2 cbr 1000 ------- 2 1.0 2.1 11 25
r 0.216889 2 0 ack 40 ------- 1 2.0 0.0 7 34
+ 0.216889 0 2 tcp 1040 ------- 1 0.0 2.0 15 39
+ 0.22 0 2 tcp 1040 ------- 1 0.0 2.0 16 40
+ 0.22 1 2 cbr 1000 ------- 2 1.0 2.1 15 41
- 0.224267 0 2 tcp 1040 ------- 1 0.0 2.0 11 31
- 0.224444 1 2 cbr 1000 ------- 2 1.0 2.1 14 37
r 0.225022 0 2 tcp 1040 ------- 1 0.0 2.0 9 27
+ 0.225022 2 0 ack 40 ------- 1 2.0 0.0 9 42
- 0.225022 2 0 ack 40 ------- 1 2.0 0.0 9 42
r 0.225556 1 2 cbr 1000 ------- 2 1.0 2.1 12 29
r 0.226133 2 0 ack 40 ------- 1 2.0 0.0 8 38
+ 0.228 0 2 tcp 1040 ------- 1 0.0 2.0 17 43
+ 0.228 1 2 cbr 1000 ------- 2 1.0 2.1 16 44
- 0.233333 1 2 cbr 1000 ------- 2 1.0 2.1 15 41
- 0.233511 0 2 tcp 1040 ------- 1 0.0 2.0 12 32
r 0.234267 0 2 tcp 1040 ------- 1 0.0 2.0 10 28
+ 0.234267 2 0 ack 40 ------- 1 2.0 0.0 10 45
- 0.234267 2 0 ack 40 ------- 1 2.0 0.0 10 45
r 0.234444 1 2 cbr 1000 ------- 2 1.0 2.1 13 33
r 0.235378 2 0 ack 40 ------- 1 2.0 0.0 9 42
+ 0.236 0 2 tcp 1040 ------- 1 0.0 2.0 18 46
+ 0.236 1 2 cbr 1000 ------- 2 1.0 2.1 17 47
- 0.242222 1 2 cbr 1000 ------- 2 1.0 2.1 16 44
- 0.242756 0 2 tcp 1040 ------- 1 0.0 2.0 13 35
r 0.243333 1 2 cbr 1000 ------- 2 1.0 2.1 14 37
r 0.243511 0 2 tcp 1040 ------- 1 0.0 2.0 11 31
+ 0.243511 2 0 ack 40 ------- 1 2.0 0.0 11 48
- 0.243511 2 0 ack 40 ------- 1 2.0 0.0 11 48
+ 0.244 0 2 tcp 1040 ------- 1 0.0 2.0 19 49
+ 0.244 1 2 cbr 1000 ------- 2 1.0 2.1 18 50
r 0.244622 2 0 ack 40 ------- 1 2.0 0.0 10 45
- 0.251111 1 2 cbr 1000 ------- 2 1.0 2.1 17 47
- 0.252 0 2 tcp 1040 ------- 1 0.0 2.0 14 36
+ 0.252 0 2 tcp 1040 ------- 1 0.0 2.0 20 51
+ 0.252 1 2 cbr 1000 ------- 2 1.0 2.1 19 52
r 0.252222 1 2 cbr 1000 ------- 2 1.0 2.1 15 41
r 0.252756 0 2 tcp 1040 ------- 1 0.0 2.0 12 32
+ 0.252756 2 0 ack 40 ------- 1 2.0 0.0 12 53
- 0.252756 2 0 ack 40 ------- 1 2.0 0.0 12 53
r 0.253867 2 0 ack 40 ------- 1 2.0 0.0 11 48
- 0.26 1 2 cbr 1000 ------- 2 1.0 2.1 18 50
+ 0.26 0 2 tcp 1040 ------- 1 0.0 2.0 21 54
+ 0.26 1 2 cbr 1000 ------- 2 1.0 2.1 20 55
r 0.261111 1 2 cbr 1000 ------- 2 1.0 2.1 16 44
- 0.261244 0 2 tcp 1040 ------- 1 0.0 2.0 15 39
r 0.262 0 2 tcp 1040 ------- 1 0.0 2.0 13 35
+ 0.262 2 0 ack 40 ------- 1 2.0 0.0 13 56
- 0.262 2 0 ack 40 ------- 1 2.0 0.0 13 56
r 0.263111 2 0 ack 40 ------- 1 2.0 0.0 12 53
+ 0.268 0 2 tcp 1040 ------- 1 0.0 2.0 22 57
+ 0.268 1 2 cbr 1000 ------- 2 1.0 2.1 21 58
- 0.268889 1 2 cbr 1000 ------- 2 1.0 2.1 19 52
r 0.27 1 2 cbr 1000 ------- 2 1.0 2.1 17 47
- 0.270489 0 2 tcp 1040 ------- 1 0.0 2.0 16 40
r 0.271244 0 2 tcp 1040 ------- 1 0.0 2.0 14 36
+ 0.271244 2 0 ack 40 ------- 1 2.0 0.0 14 59
- 0.271244 2 0 ack 40 ------- 1 2.0 0.0 14 59
r 0.272356 2 0 ack 40 ------- 1 2.0 0.0 13 56
+ 0.276 0 2 tcp 1040 ------- 1 0.0 2.0 23 60
+ 0.276 1 2 cbr 1000 ------- 2 1.0 2.1 22 61
- 0.277778 1 2 cbr 1000 ------- 2 1.0 2.1 20 55
r 0.278889 1 2 cbr 1000 ------- 2 1.0 2.1 18 50
- 0.279733 0 2 tcp 1040 ------- 1 0.0 2.0 17 43
r 0.280489 0 2 tcp 1040 ------- 1 0.0 2.0 15 39
+ 0.280489 2 0 ack 40 ------- 1 2.0 0.0 15 62
- 0.280489 2 0 ack 40 ------- 1 2.0 0.0 15 62
r 0.2816 2 0 ack 40 ------- 1 2.0 0.0 14 59
+ 0.284 0 2 tcp 1040 ------- 1 0.0 2.0 24 63
+ 0.284 1 2 cbr 1000 ------- 2 1.0 2.1 23 64
- 0.286667 1 2 cbr 1000 ------- 2 1.0 2.1 21 58
r 0.287778 1 2 cbr 1000 ------- 2 1.0 2.1 19 52
- 0.288978 0 2 tcp 1040 ------- 1 0.0 2.0 18 46
r 0.289733 0 2 tcp 1040 ------- 1 0.0 2.0 16 40
+ 0.289733 2 0 ack 40 ------- 1 2.0 0.0 16 65
- 0.289733 2 0 ack 40 ------- 1 2.0 0.0 16 65
r 0.290844 2 0 ack 40 ------- 1 2.0 0.0 15 62
+ 0.292 0 2 tcp 1040 ------- 1 0.0 2.0 25 66
+ 0.292 1 2 cbr 1000 ------- 2 1.0 2.1 24 67
- 0.295556 1 2 cbr 1000 ------- 2 1.0 2.1 22 61
r 0.296667 1 2 cbr 1000 ------- 2 1.0 2.1 20 55
- 0.298222 0 2 tcp 1040 ------- 1 0.0 2.0 19 49
r 0.298978 0 2 tcp 1040 ------- 1 0.0 2.0 17 43
+ 0.298978 2 0 ack 40 ------- 1 2.0 0.0 17 68
- 0.298978 2 0 ack 40 ------- 1 2.0 0.0 17 68
+ 0.3 0 2 tcp 1040 ------- 1 0.0 2.0 26 69
+ 0.3 1 2 cbr 1000 ------- 2 1.0 2.1 25 70
r 0.300089 2 0 ack 40 ------- 1 2.0 0.0 16 65
- 0.304444 1 2 cbr 1000 ------- 2 1.0 2.1 23 64
r 0.305556 1 2 cbr 1000 ------- 2 1.0 2.1 21 58
- 0.307467 0 2 tcp 1040 ------- 1 0.0 2.0 20 51
+ 0.308 0 2 tcp 1040 ------- 1 0.0 2.0 27 71
+ 0.308 1 2 cbr 1000 ------- 2 1.0 2.1 26 72
r 0.308222 0 2 tcp 1040 ------- 1 0.0 2.0 18 46
+ 0.308222 2 0 ack 40 ------- 1 2.0 0.0 18 73
- 0.308222 2 0 ack 40 ------- 1 2.0 0.0 18 73
r 0.309333 2 0 ack 40 ------- 1 2.0 0.0 17 68
- 0.313333 1 2 cbr 1000 ------- 2 1.0 2.1 24 67
r 0.314444 1 2 cbr 1000 ------- 2 1.0 2.1 22 61
+ 0.316 0 2 tcp 1040 ------- 1 0.0 2.0 28 74
+ 0.316 1 2 cbr 1000 ------- 2 1.0 2.1 27 75
- 0.316711 0 2 tcp 1040 ------- 1 0.0 2.0 21 54
r 0.317467 0 2 tcp 1040 ------- 1 0.0 2.0 19 49
+ 0.317467 2 0 ack 40 ------- 1 2.0 0.0 19 76
- 0.317467 2 0 ack 40 ------- 1 2.0 0.0 19 76
r 0.318578 2 0 ack 40 ------- 1 2.0 0.0 18 73
- 0.322222 1 2 cbr 1000 ------- 2 1.0 2.1 25 70
r 0.323333 1 2 cbr 1000 ------- 2 1.0 2.1 23 64
+ 0.324 0 2 tcp 1040 ------- 1 0.0 2.0 29 77
+ 0.324 1 2 cbr 1000 ------- 2 1.0 2.1 28 78
- 0.325956 0 2 tcp 1040 ------- 1 0.0 2.0 22 57
r 0.326711 0 2 tcp 1040 ------- 1 0.0 2.0 20 51
+ 0.326711 2 0 ack 40 ------- 1 2.0 0.0 20 79
- 0.326711 2 0 ack 40 ------- 1 2.0 0.0 20 79
r 0.327822 2 0 ack 40 ------- 1 2.0 0.0 19 76
- 0.331111 1 2 cbr 1000 ------- 2 1.0 2.1 26 72
+ 0.332 0 2 tcp 1040 ------- 1 0.0 2.0 30 80
+ 0.332 1 2 cbr 1000 ------- 2 1.0 2.1 29 81
r 0.332222 1 2 cbr 1000 ------- 2 1.0 2.1 24 67
- 0.3352 0 2 tcp 1040 ------- 1 0.0 2.0 23 60
r 0.335956 0 2 tcp 1040 ------- 1 0.0 2.0 21 54
+ 0.335956 2 0 ack 40 ------- 1 2.0 0.0 21 82
- 0.335956 2 0 ack 40 ------- 1 2.0 0.0 21 82
r 0.337067 2 0 ack 40 ------- 1 2.0 0.0 20 79
- 0.34 1 2 cbr 1000 ------- 2 1.0 2.1 27 75
+ 0.34 0 2 tcp 1040 ------- 1 0.0 2.0 31 83
+ 0.34 1 2 cbr 1000 ------- 2 1.0 2.1 30 84
r 0.341111 1 2 cbr 1000 ------- 2 1.0 2.1 25 70
- 0.344444 0 2 tcp 1040 ------- 1 0.0 2.0 24 63
r 0.3452 0 2 tcp 1040 ------- 1 0.0 2.0 22 57
+ 0.3452 2 0 ack 40 ------- 1 2.0 0.0 22 85
- 0.3452 2 0 ack 40 ------- 1 2.0 0.0 22 85
r 0.346311 2 0 ack 40 ------- 1 2.0 0.0 21 82
+ 0.348 0 2 tcp 1040 ------- 1 0.0 2.0 32 86
+ 0.348 1 2 cbr 1000 ------- 2 1.0 2.1 31 87
- 0.348889 1 2 cbr 1000 ------- 2 1.0 2.1 28 78
r 0.35 1 2 cbr 1000 ------- 2 1.0 2.1 26 72
- 0.353689 0 2 tcp 1040 ------- 1 0.0 2.0 25 66
r 0.354444 0 2 tcp 1040 ------- 1 0.0 2.0 23 60
+ 0.354444 2 0 ack 40 ------- 1 2.0 0.0 23 88
- 0.354444 2 0 ack 40 ------- 1 2.0 0.0 23 88
r 0.355556 2 0 ack 40 ------- 1 2.0 0.0 22 85
+ 0.356 0 2 tcp 1040 ------- 1 0.0 2.0 33 89
+ 0.356 1 2 cbr 1000 ------- 2 1.0 2.1 32 90
- 0.357778 1 2 cbr 1000 ------- 2 1.0 2.1 29 81
r 0.358889 1 2 cbr 1000 ------- 2 1.0 2.1 27 75
- 0.362933 0 2 tcp 1040 ------- 1 0.0 2.0 26 69
r 0.363689 0 2 tcp 1040 ------- 1 0.0 2.0 24 63
+ 0.363689 2 0 ack 40 ------- 1 2.0 0.0 24 91
- 0.363689 2 0 ack 40 ------- 1 2.0 0.0 24 91
+ 0.364 0 2 tcp 1040 ------- 1 0.0 2.0 34 92
+ 0.364 1 2 cbr 1000 ------- 2 1.0 2.1 33 93
r 0.3648 2 0 ack 40 ------- 1 2.0 0.0 23 88
- 0.366667 1 2 cbr 1000 ------- 2 1.0 2.1 30 84
r 0.367778 1 2 cbr 1000 ------- 2 1.0 2.1 28 78
+ 0.372 0 2 tcp 1040 ------- 1 0.0 2.0 35 94
+ 0.372 1 2 cbr 1000 ------- 2 1.0 2.1 34 95
- 0.372178 0 2 tcp 1040 ------- 1 0.0 2.0 27 71
r 0.372933 0 2 tcp 1040 ------- 1 0.0 2.0 25 66
+ 0.372933 2 0 ack 40 ------- 1 2.0 0.0 25 96
- 0.372933 2 0 ack 40 ------- 1 2.0 0.0 25 96
r 0.374044 2 0 ack 40 ------- 1 2.0 0.0 24 91
- 0.375556 1 2 cbr 1000 ------- 2 1.0 2.1 31 87
r 0.376667 1 2 cbr 1000 ------- 2 1.0 2.1 29 81
+ 0.38 0 2 tcp 1040 ------- 1 0.0 2.0 36 97
+ 0.38 1 2 cbr 1000 ------- 2 1.0 2.1 35 98
- 0.381422 0 2 tcp 1040 ------- 1 0.0 2.0 28 74
r 0.382178 0 2 tcp 1040 ------- 1 0.0 2.0 26 69
+ 0.382178 2 0 ack 40 ------- 1 2.0 0.0 26 99
- 0.382178 2 0 ack 40 ------- 1 2.0 0.0 26 99
r 0.383289 2 0 ack 40 ------- 1 2.0 0.0 25 96
- 0.384444 1 2 cbr 1000 ------- 2 1.0 2.1 32 90
r 0.385556 1 2 cbr 1000 ------- 2 1.0 2.1 30 84
+ 0.388 0 2 tcp 1040 ------- 1 0.0 2.0 37 100
+ 0.388 1 2 cbr 1000 ------- 2 1.0 2.1 36 101
- 0.390667 0 2 tcp 1040 ------- 1 0.0 2.0 29 77
r 0.391422 0 2 tcp 1040 ------- 1 0.0 2.0 27 71
+ 0.391422 2 0 ack 40 ------- 1 2.0 0.0 27 102
- 0.391422 2 0 ack 40 ------- 1 2.0 0.0 27 102
r 0.392533 2 0 ack 40 ------- 1 2.0 0.0 26 99
- 0.393333 1 2 cbr 1000 ------- 2 1.0 2.1 33 93
r 0.394444 1 2 cbr 1000 ------- 2 1.0 2.1 31 87
+ 0.396 0 2 tcp 1040 ------- 1 0.0 2.0 38 103
+ 0.396 1 2 cbr 1000 ------- 2 1.0 2.1 37 104
- 0.399911 0 2 tcp 1040 ------- 1 0.0 2.0 30 80
r 0.400667 0 2 tcp 1040 ------- 1 0.0 2.0 28 74
+ 0.400667 2 0 ack 40 ------- 1 2.0 0.0 28 105
- 0.400667 2 0 ack 40 ------- 1 2.0 0.0 28 105
r 0.401778 2 0 ack 40 ------- 1 2.0 0.0 27 102
- 0.402222 1 2 cbr 1000 ------- 2 1.0 2.1 34 95
r 0.403333 1 2 cbr 1000 ------- 2 1.0 2.1 32 90
+ 0.404 0 2 tcp 1040 ------- 1 0.0 2.0 39 106
+ 0.404 1 2 cbr 1000 ------- 2 1.0 2.1 38 107
- 0.409156 0 2 tcp 1040 ------- 1 0.0 2.0 31 83
r 0.409911 0 2 tcp 1040 ------- 1 0.0 2.0 29 77
+ 0.409911 2 0 ack 40 ------- 1 2.0 0.0 29 108
- 0.409911 2 0 ack 40 ------- 1 2.0 0.0 29 108
r 0.411022 2 0 ack 40 ------- 1 2.0 0.0 28 105
- 0.411111 1 2 cbr 1000 ------- 2 1.0 2.1 35 98
+ 0.412 0 2 tcp 1040 ------- 1 0.0 2.0 40 109
+ 0.412 1 2 cbr 1000 ------- 2 1.0 2.1 39 110
r 0.412222 1 2 cbr 1000 ------- 2 1.0 2.1 33 93
- 0.4184 0 2 tcp 1040 ------- 1 0.0 2.0 32 86
r 0.419156 0 2 tcp 1040 ------- 1 0.0 2.0 30 80
+ 0.419156 2 0 ack 40 ------- 1 2.0 0.0 30 111
- 0.419156 2 0 ack 40 ------- 1 2.0 0.0 30 111
- 0.42 1 2 cbr 1000 ------- 2 1.0 2.1 36 101
+ 0.42 0 2 tcp 1040 ------- 1 0.0 2.0 41 112
+ 0.42 1 2 cbr 1000 ------- 2 1.0 2.1 40 113
r 0.420267 2 0 ack 40 ------- 1 2.0 0.0 29 108
r 0.421111 1 2 cbr 1000 ------- 2 1.0 2.1 34 95
- 0.427644 0 2 tcp 1040 ------- 1 0.0 2.0 33 89
+ 0.428 0 2 tcp 1040 ------- 1 0.0 2.0 42 114
+ 0.428 1 2 cbr 1000 ------- 2 1.0 2.1 41 115
r 0.4284 0 2 tcp 1040 ------- 1 0.0 2.0 31 83
+ 0.4284 2 0 ack 40 ------- 1 2.0 0.0 31 116
- 0.4284 2 0 ack 40 ------- 1 2.0 0.0 31 116
- 0.428889 1 2 cbr 1000 ------- 2 1.0 2.1 37 104
r 0.429511 2 0 ack 40 ------- 1 2.0 0.0 30 111
r 0.43 1 2 cbr 1000 ------- 2 1.0 2.1 35 98
+ 0.436 0 2 tcp 1040 ------- 1 0.0 2.0 43 117
d 0.436 0 2 tcp 1040 ------- 1 0.0 2.0 43 117
+ 0.436 1 2 cbr 1000 ------- 2 1.0 2.1 42 118
- 0.436889 0 2 tcp 1040 ------- 1 0.0 2.0 34 92
r 0.437644 0 2 tcp 1040 ------- 1 0.0 2.0 32 86
+ 0.437644 2 0 ack 40 ------- 1 2.0 0.0 32 119
- 0.437644 2 0 ack 40 ------- 1 2.0 0.0 32 119
- 0.437778 1 2 cbr 1000 ------- 2 1.0 2.1 38 107
r 0.438756 2 0 ack 40 ------- 1 2.0 0.0 31 116
r 0.438889 1 2 cbr 1000 ------- 2 1.0 2.1 36 101
+ 0.444 0 2 tcp 1040 ------- 1 0.0 2.0 44 120
+ 0.444 1 2 cbr 1000 ------- 2 1.0 2.1 43 121
- 0.446133 0 2 tcp 1040 ------- 1 0.0 2.0 35 94
- 0.446667 1 2 cbr 1000 ------- 2 1.0 2.1 39 110
r 0.446889 0 2 tcp 1040 ------- 1 0.0 2.0 33 89
+ 0.446889 2 0 ack 40 ------- 1 2.0 0.0 33 122
- 0.446889 2 0 ack 40 ------- 1 2.0 0.0 33 122
r 0.447778 1 2 cbr 1000 ------- 2 1.0 2.1 37 104
r 0.448 2 0 ack 40 ------- 1 2.0 0.0 32 119
+ 0.452 0 2 tcp 1040 ------- 1 0.0 2.0 45 123
+ 0.452 1 2 cbr 1000 ------- 2 1.0 2.1 44 124
- 0.455378 0 2 tcp 1040 ------- 1 0.0 2.0 36 97
- 0.455556 1 2 cbr 1000 ------- 2 1.0 2.1 40 113
r 0.456133 0 2 tcp 1040 ------- 1 0.0 2.0 34 92
+ 0.456133 2 0 ack 40 ------- 1 2.0 0.0 34 125
- 0.456133 2 0 ack 40 ------- 1 2.0 0.0 34 125
r 0.456667 1 2 cbr 1000 ------- 2 1.0 2.1 38 107
r 0.457244 2 0 ack 40 ------- 1 2.0 0.0 33 122
+ 0.46 0 2 tcp 1040 ------- 1 0.0 2.0 46 126
+ 0.46 1 2 cbr 1000 ------- 2 1.0 2.1 45 127
- 0.464444 1 2 cbr 1000 ------- 2 1.0 2.1 41 115
- 0.464622 0 2 tcp 1040 ------- 1 0.0 2.0 37 100
r 0.465378 0 2 tcp 1040 ------- 1 0.0 2.0 35 94
+ 0.465378 2 0 ack 40 ------- 1 2.0 0.0 35 128
- 0.465378 2 0 ack 40 ------- 1 2.0 0.0 35 128
r 0.465556 1 2 cbr 1000 ------- 2 1.0 2.1 39 110
r 0.466489 2 0 ack 40 ------- 1 2.0 0.0 34 125
+ 0.468 0 2 tcp 1040 ------- 1 0.0 2.0 47 129
+ 0.468 1 2 cbr 1000 ------- 2 1.0 2.1 46 130
- 0.473333 1 2 cbr 1000 ------- 2 1.0 2.1 42 118
- 0.473867 0 2 tcp 1040 ------- 1 0.0 2.0 38 103
r 0.474444 1 2 cbr 1000 ------- 2 1.0 2.1 40 113
r 0.474622 0 2 tcp 1040 ------- 1 0.0 2.0 36 97
+ 0.474622 2 0 ack 40 ------- 1 2.0 0.0 36 131
- 0.474622 2 0 ack 40 ------- 1 2.0 0.0 36 131
r 0.475733 2 0 ack 40 ------- 1 2.0 0.0 35 128
+ 0.476 0 2 tcp 1040 ------- 1 0.0 2.0 48 132
+ 0.476 1 2 cbr 1000 ------- 2 1.0 2.1 47 133
- 0.482222 1 2 cbr 1000 ------- 2 1.0 2.1 43 121
- 0.483111 0 2 tcp 1040 ------- 1 0.0 2.0 39 106
r 0.483333 1 2 cbr 1000 ------- 2 1.0 2.1 41 115
r 0.483867 0 2 tcp 1040 ------- 1 0.0 2.0 37 100
+ 0.483867 2 0 ack 40 ------- 1 2.0 0.0 37 134
- 0.483867 2 0 ack 40 ------- 1 2.0 0.0 37 134
+ 0.484 0 2 tcp 1040 ------- 1 0.0 2.0 49 135
+ 0.484 1 2 cbr 1000 ------- 2 1.0 2.1 48 136
r 0.484978 2 0 ack 40 ------- 1 2.0 0.0 36 131
- 0.491111 1 2 cbr 1000 ------- 2 1.0 2.1 44 124
+ 0.492 0 2 tcp 1040 ------- 1 0.0 2.0 50 137
d 0.492 0 2 tcp 1040 ------- 1 0.0 2.0 50 137
+ 0.492 1 2 cbr 1000 ------- 2 1.0 2.1 49 138
r 0.492222 1 2 cbr 1000 ------- 2 1.0 2.1 42 118
- 0.492356 0 2 tcp 1040 ------- 1 0.0 2.0 40 109
r 0.493111 0 2 tcp 1040 ------- 1 0.0 2.0 38 103
+ 0.493111 2 0 ack 40 ------- 1 2.0 0.0 38 139
- 0.493111 2 0 ack 40 ------- 1 2.0 0.0 38 139
r 0.494222 2 0 ack 40 ------- 1 2.0 0.0 37 134
- 0.5 1 2 cbr 1000 ------- 2 1.0 2.1 45 127
+ 0.5 0 2 tcp 1040 ------- 1 0.0 2.0 51 140
+ 0.5 1 2 cbr 1000 ------- 2 1.0 2.1 50 141
r 0.501111 1 2 cbr 1000 ------- 2 1.0 2.1 43 121
- 0.5016 0 2 tcp 1040 ------- 1 0.0 2.0 41 112
r 0.502356 0 2 tcp 1040 ------- 1 0.0 2.0 39 106
+ 0.502356 2 0 ack 40 ------- 1 2.0 0.0 39 142
- 0.502356 2 0 ack 40 ------- 1 2.0 0.0 39 142
r 0.503467 2 0 ack 40 ------- 1 2.0 0.0 38 139
+ 0.508 0 2 tcp 1040 ------- 1 0.0 2.0 52 143
+ 0.508 1 2 cbr 1000 ------- 2 1.0 2.1 51 144
- 0.508889 1 2 cbr 1000 ------- 2 1.0 2.1 46 130
r 0.51 1 2 cbr 1000 ------- 2 1.0 2.1 44 124
- 0.510844 0 2 tcp 1040 ------- 1 0.0 2.0 42 114
r 0.5116 0 2 tcp 1040 ------- 1 0.0 2.0 40 109
+ 0.5116 2 0 ack 40 ------- 1 2.0 0.0 40 145
- 0.5116 2 0 ack 40 ------- 1 2.0 0.0 40 145
r 0.512711 2 0 ack 40 ------- 1 2.0 0.0 39 142
+ 0.516 0 2 tcp 1040 ------- 1 0.0 2.0 53 146
+ 0.516 1 2 cbr 1000 ------- 2 1.0 2.1 52 147
- 0.517778 1 2 cbr 1000 ------- 2 1.0 2.1 47 133
r 0.518889 1 2 cbr 1000 ------- 2 1.0 2.1 45 127
- 0.520089 0 2 tcp 1040 ------- 1 0.0 2.0 44 120
r 0.520844 0 2 tcp 1040 ------- 1 0.0 2.0 41 112
+ 0.520844 2 0 ack 40 ------- 1 2.0 0.0 41 148
- 0.520844 2 0 ack 40 ------- 1 2.0 0.0 41 148
r 0.521956 2 0 ack 40 ------- 1 2.0 0.0 40 145
+ 0.524 0 2 tcp 1040 ------- 1 0.0 2.0 54 149
+ 0.524 1 2 cbr 1000 ------- 2 1.0 2.1 53 150
- 0.526667 1 2 cbr 1000 ------- 2 1.0 2.1 48 136
r 0.527778 1 2 cbr 1000 ------- 2 1.0 2.1 46 130
- 0.529333 0 2 tcp 1040 ------- 1 0.0 2.0 45 123
r 0.530089 0 2 tcp 1040 ------- 1 0.0 2.0 42 114
+ 0.530089 2 0 ack 40 ------- 1 2.0 0.0 42 151
- 0.530089 2 0 ack 40 ------- 1 2.0 0.0 42 151
r 0.5312 2 0 ack 40 ------- 1 2.0 0.0 41 148
+ 0.532 0 2 tcp 1040 ------- 1 0.0 2.0 55 152
+ 0.532 1 2 cbr 1000 ------- 2 1.0 2.1 54 153
- 0.535556 1 2 cbr 1000 ------- 2 1.0 2.1 49 138
r 0.536667 1 2 cbr 1000 ------- 2 1.0 2.1 47 133
- 0.538578 0 2 tcp 1040 ------- 1 0.0 2.0 46 126
r 0.539333 0 2 tcp 1040 ------- 1 0.0 2.0 44 120
+ 0.539333 2 0 ack 40 ------- 1 2.0 0.0 42 154
- 0.539333 2 0 ack 40 ------- 1 2.0 0.0 42 154
+ 0.54 0 2 tcp 1040 ------- 1 0.0 2.0 56 155
+ 0.54 1 2 cbr 1000 ------- 2 1.0 2.1 55 156
r 0.540444 2 0 ack 40 ------- 1 2.0 0.0 42 151
- 0.544444 1 2 cbr 1000 ------- 2 1.0 2.1 50 141
r 0.545556 1 2 cbr 1000 ------- 2 1.0 2.1 48 136
- 0.547822 0 2 tcp 1040 ------- 1 0.0 2.0 47 129
+ 0.548 0 2 tcp 1040 ------- 1 0.0 2.0 57 157
+ 0.548 1 2 cbr 1000 ------- 2 1.0 2.1 56 158
r 0.548578 0 2 tcp 1040 ------- 1 0.0 2.0 45 123
+ 0.548578 2 0 ack 40 ------- 1 2.0 0.0 42 159
- 0.548578 2 0 ack 40 ------- 1 2.0 0.0 42 159
r 0.549689 2 0 ack 40 ------- 1 2.0 0.0 42 154
- 0.553333 1 2 cbr 1000 ------- 2 1.0 2.1 51 144
r 0.554444 1 2 cbr 1000 ------- 2 1.0 2.1 49 138
+ 0.556 0 2 tcp 1040 ------- 1 0.0 2.0 58 160
d 0.556 0 2 tcp 1040 ------- 1 0.0 2.0 58 160
+ 0.556 1 2 cbr 1000 ------- 2 1.0 2.1 57 161
- 0.557067 0 2 tcp 1040 ------- 1 0.0 2.0 48 132
r 0.557822 0 2 tcp 1040 ------- 1 0.0 2.0 46 126
+ 0.557822 2 0 ack 40 ------- 1 2.0 0.0 42 162
- 0.557822 2 0 ack 40 ------- 1 2.0 0.0 42 162
r 0.558933 2 0 ack 40 ------- 1 2.0 0.0 42 159
- 0.562222 1 2 cbr 1000 ------- 2 1.0 2.1 52 147
r 0.563333 1 2 cbr 1000 ------- 2 1.0 2.1 50 141
+ 0.564 0 2 tcp 1040 ------- 1 0.0 2.0 59 163
+ 0.564 1 2 cbr 1000 ------- 2 1.0 2.1 58 164
- 0.566311 0 2 tcp 1040 ------- 1 0.0 2.0 49 135
r 0.567067 0 2 tcp 1040 ------- 1 0.0 2.0 47 129
+ 0.567067 2 0 ack 40 ------- 1 2.0 0.0 42 165
- 0.567067 2 0 ack 40 ------- 1 2.0 0.0 42 165
r 0.568178 2 0 ack 40 ------- 1 2.0 0.0 42 162
+ 0.568178 0 2 tcp 1040 ---A--- 1 0.0 2.0 43 166
- 0.571111 1 2 cbr 1000 ------- 2 1.0 2.1 53 150
+ 0.572 1 2 cbr 1000 ------- 2 1.0 2.1 59 167
r 0.572222 1 2 cbr 1000 ------- 2 1.0 2.1 51 144
- 0.575556 0 2 tcp 1040 ------- 1 0.0 2.0 51 140
r 0.576311 0 2 tcp 1040 ------- 1 0.0 2.0 48 132
+ 0.576311 2 0 ack 40 ------- 1 2.0 0.0 42 168
- 0.576311 2 0 ack 40 ------- 1 2.0 0.0 42 168
r 0.577422 2 0 ack 40 ------- 1 2.0 0.0 42 165
- 0.58 1 2 cbr 1000 ------- 2 1.0 2.1 54 153
+ 0.58 1 2 cbr 1000 ------- 2 1.0 2.1 60 169
r 0.581111 1 2 cbr 1000 ------- 2 1.0 2.1 52 147
- 0.5848 0 2 tcp 1040 ------- 1 0.0 2.0 52 143
r 0.585556 0 2 tcp 1040 ------- 1 0.0 2.0 49 135
+ 0.585556 2 0 ack 40 ------- 1 2.0 0.0 42 170
- 0.585556 2 0 ack 40 ------- 1 2.0 0.0 42 170
r 0.586667 2 0 ack 40 ------- 1 2.0 0.0 42 168
+ 0.588 1 2 cbr 1000 ------- 2 1.0 2.1 61 171
- 0.588889 1 2 cbr 1000 ------- 2 1.0 2.1 55 156
r 0.59 1 2 cbr 1000 ------- 2 1.0 2.1 53 150
- 0.594044 0 2 tcp 1040 ------- 1 0.0 2.0 53 146
r 0.5948 0 2 tcp 1040 ------- 1 0.0 2.0 51 140
+ 0.5948 2 0 ack 40 ------- 1 2.0 0.0 42 172
- 0.5948 2 0 ack 40 ------- 1 2.0 0.0 42 172
r 0.595911 2 0 ack 40 ------- 1 2.0 0.0 42 170
+ 0.596 1 2 cbr 1000 ------- 2 1.0 2.1 62 173
- 0.597778 1 2 cbr 1000 ------- 2 1.0 2.1 56 158
r 0.598889 1 2 cbr 1000 ------- 2 1.0 2.1 54 153
- 0.603289 0 2 tcp 1040 ------- 1 0.0 2.0 54 149
+ 0.604 1 2 cbr 1000 ------- 2 1.0 2.1 63 174
r 0.604044 0 2 tcp 1040 ------- 1 0.0 2.0 52 143
+ 0.604044 2 0 ack 40 ------- 1 2.0 0.0 42 175
- 0.604044 2 0 ack 40 ------- 1 2.0 0.0 42 175
r 0.605156 2 0 ack 40 ------- 1 2.0 0.0 42 172
- 0.606667 1 2 cbr 1000 ------- 2 1.0 2.1 57 161
r 0.607778 1 2 cbr 1000 ------- 2 1.0 2.1 55 156
+ 0.612 1 2 cbr 1000 ------- 2 1.0 2.1 64 176
- 0.612533 0 2 tcp 1040 ------- 1 0.0 2.0 55 152
r 0.613289 0 2 tcp 1040 ------- 1 0.0 2.0 53 146
+ 0.613289 2 0 ack 40 ------- 1 2.0 0.0 42 177
- 0.613289 2 0 ack 40 ------- 1 2.0 0.0 42 177
r 0.6144 2 0 ack 40 ------- 1 2.0 0.0 42 175
- 0.615556 1 2 cbr 1000 ------- 2 1.0 2.1 58 164
r 0.616667 1 2 cbr 1000 ------- 2 1.0 2.1 56 158
+ 0.62 1 2 cbr 1000 ------- 2 1.0 2.1 65 178
- 0.621778 0 2 tcp 1040 ------- 1 0.0 2.0 56 155
r 0.622533 0 2 tcp 1040 ------- 1 0.0 2.0 54 149
+ 0.622533 2 0 ack 40 ------- 1 2.0 0.0 42 179
- 0.622533 2 0 ack 40 ------- 1 2.0 0.0 42 179
r 0.623644 2 0 ack 40 ------- 1 2.0 0.0 42 177
- 0.624444 1 2 cbr 1000 ------- 2 1.0 2.1 59 167
r 0.625556 1 2 cbr 1000 ------- 2 1.0 2.1 57 161
+ 0.628 1 2 cbr 1000 ------- 2 1.0 2.1 66 180
- 0.631022 0 2 tcp 1040 ------- 1 0.0 2.0 57 157
r 0.631778 0 2 tcp 1040 ------- 1 0.0 2.0 55 152
+ 0.631778 2 0 ack 40 ------- 1 2.0 0.0 42 181
- 0.631778 2 0 ack 40 ------- 1 2.0 0.0 42 181
r 0.632889 2 0 ack 40 ------- 1 2.0 0.0 42 179
- 0.633333 1 2 cbr 1000 ------- 2 1.0 2.1 60 169
r 0.634444 1 2 cbr 1000 ------- 2 1.0 2.1 58 164
+ 0.636 1 2 cbr 1000 ------- 2 1.0 2.1 67 182
- 0.640267 0 2 tcp 1040 ------- 1 0.0 2.0 59 163
r 0.641022 0 2 tcp 1040 ------- 1 0.0 2.0 56 155
+ 0.641022 2 0 ack 40 ------- 1 2.0 0.0 42 183
- 0.641022 2 0 ack 40 ------- 1 2.0 0.0 42 183
r 0.642133 2 0 ack 40 ------- 1 2.0 0.0 42 181
- 0.642222 1 2 cbr 1000 ------- 2 1.0 2.1 61 171
r 0.643333 1 2 cbr 1000 ------- 2 1.0 2.1 59 167
+ 0.644 1 2 cbr 1000 ------- 2 1.0 2.1 68 184
- 0.649511 0 2 tcp 1040 ---A--- 1 0.0 2.0 43 166
r 0.650267 0 2 tcp 1040 ------- 1 0.0 2.0 57 157
+ 0.650267 2 0 ack 40 ------- 1 2.0 0.0 42 185
- 0.650267 2 0 ack 40 ------- 1 2.0 0.0 42 185
- 0.651111 1 2 cbr 1000 ------- 2 1.0 2.1 62 173
r 0.651378 2 0 ack 40 ------- 1 2.0 0.0 42 183
+ 0.652 1 2 cbr 1000 ------- 2 1.0 2.1 69 186
r 0.652222 1 2 cbr 1000 ------- 2 1.0 2.1 60 169
r 0.659511 0 2 tcp 1040 ------- 1 0.0 2.0 59 163
+ 0.659511 2 0 ack 40 ------- 1 2.0 0.0 42 187
- 0.659511 2 0 ack 40 ------- 1 2.0 0.0 42 187
- 0.66 1 2 cbr 1000 ------- 2 1.0 2.1 63 174
+ 0.66 1 2 cbr 1000 ------- 2 1.0 2.1 70 188
r 0.660622 2 0 ack 40 ------- 1 2.0 0.0 42 185
r 0.661111 1 2 cbr 1000 ------- 2 1.0 2.1 61 171
+ 0.668 1 2 cbr 1000 ------- 2 1.0 2.1 71 189
r 0.668756 0 2 tcp 1040 ---A--- 1 0.0 2.0 43 166
+ 0.668756 2 0 ack 40 ------- 1 2.0 0.0 49 190
- 0.668756 2 0 ack 40 ------- 1 2.0 0.0 49 190
- 0.668889 1 2 cbr 1000 ------- 2 1.0 2.1 64 176
r 0.669867 2 0 ack 40 ------- 1 2.0 0.0 42 187
r 0.67 1 2 cbr 1000 ------- 2 1.0 2.1 62 173
+ 0.676 1 2 cbr 1000 ------- 2 1.0 2.1 72 191
- 0.677778 1 2 cbr 1000 ------- 2 1.0 2.1 65 178
r 0.678889 1 2 cbr 1000 ------- 2 1.0 2.1 63 174
r 0.679111 2 0 ack 40 ------- 1 2.0 0.0 49 190
+ 0.679111 0 2 tcp 1040 ------- 1 0.0 2.0 50 192
- 0.679111 0 2 tcp 1040 ------- 1 0.0 2.0 50 192
+ 0.679111 0 2 tcp 1040 ------- 1 0.0 2.0 51 193
+ 0.684 1 2 cbr 1000 ------- 2 1.0 2.1 73 194
- 0.686667 1 2 cbr 1000 ------- 2 1.0 2.1 66 180
r 0.687778 1 2 cbr 1000 ------- 2 1.0 2.1 64 176
- 0.688356 0 2 tcp 1040 ------- 1 0.0 2.0 51 193
+ 0.692 1 2 cbr 1000 ------- 2 1.0 2.1 74 195
- 0.695556 1 2 cbr 1000 ------- 2 1.0 2.1 67 182
r 0.696667 1 2 cbr 1000 ------- 2 1.0 2.1 65 178
r 0.698356 0 2 tcp 1040 ------- 1 0.0 2.0 50 192
+ 0.698356 2 0 ack 40 ------- 1 2.0 0.0 57 196
- 0.698356 2 0 ack 40 ------- 1 2.0 0.0 57 196
+ 0.7 1 2 cbr 1000 ------- 2 1.0 2.1 75 197
- 0.704444 1 2 cbr 1000 ------- 2 1.0 2.1 68 184
r 0.705556 1 2 cbr 1000 ------- 2 1.0 2.1 66 180
r 0.7076 0 2 tcp 1040 ------- 1 0.0 2.0 51 193
+ 0.7076 2 0 ack 40 ------- 1 2.0 0.0 57 198
- 0.7076 2 0 ack 40 ------- 1 2.0 0.0 57 198
+ 0.708 1 2 cbr 1000 ------- 2 1.0 2.1 76 199
r 0.708711 2 0 ack 40 ------- 1 2.0 0.0 57 196
+ 0.708711 0 2 tcp 1040 ------- 1 0.0 2.0 58 200
- 0.708711 0 2 tcp 1040 ------- 1 0.0 2.0 58 200
+ 0.708711 0 2 tcp 1040 ------- 1 0.0 2.0 59 201
+ 0.708711 0 2 tcp 1040 ------- 1 0.0 2.0 60 202
- 0.713333 1 2 cbr 1000 ------- 2 1.0 2.1 69 186
r 0.714444 1 2 cbr 1000 ------- 2 1.0 2.1 67 182
+ 0.716 1 2 cbr 1000 ------- 2 1.0 2.1 77 203
- 0.717956 0 2 tcp 1040 ------- 1 0.0 2.0 59 201
r 0.717956 2 0 ack 40 ------- 1 2.0 0.0 57 198
+ 0.717956 0 2 tcp 1040 ------- 1 0.0 2.0 61 204
- 0.722222 1 2 cbr 1000 ------- 2 1.0 2.1 70 188
r 0.723333 1 2 cbr 1000 ------- 2 1.0 2.1 68 184
+ 0.724 1 2 cbr 1000 ------- 2 1.0 2.1 78 205
- 0.7272 0 2 tcp 1040 ------- 1 0.0 2.0 60 202
r 0.727956 0 2 tcp 1040 ------- 1 0.0 2.0 58 200
+ 0.727956 2 0 ack 40 ------- 1 2.0 0.0 59 206
- 0.727956 2 0 ack 40 ------- 1 2.0 0.0 59 206
- 0.731111 1 2 cbr 1000 ------- 2 1.0 2.1 71 189
+ 0.732 1 2 cbr 1000 ------- 2 1.0 2.1 79 207
r 0.732222 1 2 cbr 1000 ------- 2 1.0 2.1 69 186
- 0.736444 0 2 tcp 1040 ------- 1 0.0 2.0 61 204
r 0.7372 0 2 tcp 1040 ------- 1 0.0 2.0 59 201
+ 0.7372 2 0 ack 40 ------- 1 2.0 0.0 59 208
- 0.7372 2 0 ack 40 ------- 1 2.0 0.0 59 208
r 0.738311 2 0 ack 40 ------- 1 2.0 0.0 59 206
+ 0.738311 0 2 tcp 1040 ------- 1 0.0 2.0 62 209
+ 0.738311 0 2 tcp 1040 ------- 1 0.0 2.0 63 210
- 0.74 1 2 cbr 1000 ------- 2 1.0 2.1 72 191
+ 0.74 1 2 cbr 1000 ------- 2 1.0 2.1 80 211
r 0.741111 1 2 cbr 1000 ------- 2 1.0 2.1 70 188
- 0.745689 0 2 tcp 1040 ------- 1 0.0 2.0 62 209
r 0.746444 0 2 tcp 1040 ------- 1 0.0 2.0 60 202
+ 0.746444 2 0 ack 40 ------- 1 2.0 0.0 60 212
- 0.746444 2 0 ack 40 ------- 1 2.0 0.0 60 212
r 0.747556 2 0 ack 40 ------- 1 2.0 0.0 59 208
+ 0.747556 0 2 tcp 1040 ------- 1 0.0 2.0 64 213
+ 0.748 1 2 cbr 1000 ------- 2 1.0 2.1 81 214
- 0.748889 1 2 cbr 1000 ------- 2 1.0 2.1 73 194
r 0.75 1 2 cbr 1000 ------- 2 1.0 2.1 71 189
- 0.754933 0 2 tcp 1040 ------- 1 0.0 2.0 63 210
r 0.755689 0 2 tcp 1040 ------- 1 0.0 2.0 61 204
+ 0.755689 2 0 ack 40 ------- 1 2.0 0.0 61 215
- 0.755689 2 0 ack 40 ------- 1 2.0 0.0 61 215
+ 0.756 1 2 cbr 1000 ------- 2 1.0 2.1 82 216
r 0.7568 2 0 ack 40 ------- 1 2.0 0.0 60 212
+ 0.7568 0 2 tcp 1040 ------- 1 0.0 2.0 65 217
- 0.757778 1 2 cbr 1000 ------- 2 1.0 2.1 74 195
r 0.758889 1 2 cbr 1000 ------- 2 1.0 2.1 72 191
+ 0.764 1 2 cbr 1000 ------- 2 1.0 2.1 83 218
- 0.764178 0 2 tcp 1040 ------- 1 0.0 2.0 64 213
r 0.764933 0 2 tcp 1040 ------- 1 0.0 2.0 62 209
+ 0.764933 2 0 ack 40 ------- 1 2.0 0.0 62 219
- 0.764933 2 0 ack 40 ------- 1 2.0 0.0 62 219
r 0.766044 2 0 ack 40 ------- 1 2.0 0.0 61 215
+ 0.766044 0 2 tcp 1040 ------- 1 0.0 2.0 66 220
+ 0.766044 0 2 tcp 1040 ------- 1 0.0 2.0 67 221
- 0.766667 1 2 cbr 1000 ------- 2 1.0 2.1 75 197
r 0.767778 1 2 cbr 1000 ------- 2 1.0 2.1 73 194
+ 0.772 1 2 cbr 1000 ------- 2 1.0 2.1 84 222
- 0.773422 0 2 tcp 1040 ------- 1 0.0 2.0 65 217
r 0.774178 0 2 tcp 1040 ------- 1 0.0 2.0 63 210
+ 0.774178 2 0 ack 40 ------- 1 2.0 0.0 63 223
- 0.774178 2 0 ack 40 ------- 1 2.0 0.0 63 223